<?xml version="1.0"?>
<VTKFile type="UnstructuredGrid"  version="0.1"  >
<UnstructuredGrid>
<Piece  NumberOfPoints="1630" NumberOfCells="3112">
<Points>
<DataArray  type="Float64"  NumberOfComponents="3"  format="ascii">0 4 0  0 0 0  4 0 0  4 4 0  0.6414213562373096 2.14142135623731 0  0.7 2 0  0.6414213562373094 1.858578643762691 0  0.4999999999999999 1.8 0  0.3585786437626904 1.858578643762691 0  0.3 2 0  0.3585786437626905 2.14142135623731 0  0.5 2.2 0  0 2 0  0 3 0  0 1 0  2 4 0  4 2 0  2 0 0  2.35 2.35 0  2.93875 1.06125 0  1.730459154046887 1.288113493264872 0  4 3 0  1.402275403750171 3.011088722007612 0  3 4 0  1 0 0  1 4 0  3 0 0  4 1 0  2.5 3.243939393939394 0  3.243939393939394 2.5 0  0.8891231146686027 1.000548053332123 0  1.538396929127129 2.111843048400676 0  3.274864751251965 3.274864751251965 0  1.5 0.5618255776495424 0  2.898219696969697 1.821590909090909 0  2.250097528577688 0.7245912909754488 0  4 0.5 0  3.5 0 0  0.6987997546338796 3.30120024536612 0  3.494857264561815 1.472144236999614 0  0.5 0 0  2.379289810545312 1.41267842841108 0  1.172152117838605 1.547024035219042 0  3.25 0.5468212603062425 0  0.7961929573292492 2.715073054663669 0  1.831175378192913 2.616087203228165 0  1.895923256631162 3.387810728409143 0  0 0.5 0  1.972621710799394 1.778832098715638 0  1.5 4 0  0.75 0.4787134635220818 0  1.193317235248461 3.502363103554577 0  3.46245063379422 2.008787840834658 0  2.901708172345216 2.901708172345216 0  2.718664983897782 0.4591820355455583 0  4 3.5 0  3.5 4 0  4 1.5 0  0.5 4 0  1.5 0 0  4 2.5 0  2.5 4 0  0 2.5 0  0 1.5 0  0.4444076268498212 1.25 0  0 3.5 0  2.5 0 0  3.503278004261107 0.9748576284519844 0  1.261951682304298 2.529922098363911 0  2.431742013944691 1.879843934510911 0  2.118108019851059 2.980591400080257 0  0.3823975899161232 0.75 0  2.75 3.621969696969697 0  2.790973548166894 2.460734624178322 0  3.538447632451404 2.876295485438267 0  1.316071954056614 1.125954851731804 0  2.25 3.64255658768052 0  2.492681871845633 2.770030115545854 0  1.129918682160699 1.975560718217893 0  1.952591353056031 2.202319822556797 0  0.3596132768695277 2.75 0  1.563215406116365 1.694598722970671 0  0.7754208380220989 1.479020590558829 0  3.68564168164192 3.25 0  3.25 3.680101480632268 0  3.635853397698684 3.635247749499161 0  1.920699775730421 0.432828065132199 0  1.834142427070557 0.8623754337095968 0  2.143886385217995 1.100704900884951 0  2.537739073944026 1.008872055777605 0  2.349305707707794 0.3534171873255952 0  2.782910794439386 1.434193620597931 0  3.104500057814295 2.14376424202131 0  0.8438736584523897 3.652982061810703 0  1.007302929383131 3.051307133599802 0  0.3065560336568765 3.25 0  0.4551119075949588 3.611630728772171 0  0.3626894884549623 0.3626894884549623 0  3.621969696969697 2.373955881884639 0  1.109249784629239 0.6623987595311139 0  1.25 0.2809127888247712 0  3.630446598045403 0.6106562213083707 0  2.899270369442534 3.277302554154646 0  0.9699028314386563 2.306575839175969 0  3.73287450331796 1.75 0  1.571894539766132 3.612373565839661 0  1.762533569588862 3.050808106798585 0  3.143538341898782 1.365854898173824 0  3.75 0 0  4 0.25 0  3.24302459493862 1.726236942685906 0  3.739483774508186 1.227571988934564 0  2.632856794240554 2.156993966426024 0  2.175164472110919 2.64363982028638 0  2.04089356353854 1.423219413804664 0  0.5979637000062453 2.983289714905934 0  2.94917035721814 0.7161810031103968 0  3.217487586302246 2.824098952680676 0  1.451029823010967 3.321902102400569 0  3.483157274963196 0.3228588149688616 0  2.190436241627436 3.284278001899603 0  1.876632108088082 3.70603191479251 0  1.013250229274632 1.282791261279627 0  1.447487756837019 1.409336002640087 0  3.223435354030419 0.8514932231793093 0  0.9348821161036954 1.73998989276749 0  0.3043823394791414 2.445803695716451 0  1.75 0 0  1.64699238875595 0.2906989171316907 0  3.185115278792098 0.2459266590843886 0  0.25 4 0  3.739425499050637 2.651598051390531 0  0.6035529124143404 2.483151322161818 0  1.360272891347578 0.8283175943337975 0  1.25 4 0  0.3154962796048327 1.540839533991945 0  1.702556220567684 2.353647321276259 0  1.525190685674622 2.714197882084063 0  1.592888950235815 1.029115537230018 0  1.182681419642508 2.814084641633932 0  2.550385747082849 0.7084144620552342 0  2.22211593889242 2.085581966900729 0  1.252870641368245 2.239181012936042 0  2.570208194541047 1.627769933762895 0  0.5845874300100842 0.9787696457768286 0  0 3.75 0  1.799318170313365 1.55409264491296 0  1.783713957496643 1.982114600219476 0  2.238331043521802 1.665032290682603 0  0.7534756737341178 0.7572495099273263 0  0.9625156541898719 0.2850603002098919 0  0.75 0 0  0.6080111964388567 0.2482288467398792 0  2.75 0 0  2.909813075069755 0.2605198315454781 0  3.732920089851 2.108062630896614 0  3.375365040841646 2.264256054306927 0  3.758112501697613 0.8595359613889522 0  0.720861261720803 1.213309130769304 0  3.088305401707915 3.466798931664568 0  0.9444676672764549 3.40569239682695 0  1.092723226424396 3.74965276853833 0  3.271169882229338 1.122294073194924 0  3.109722076499734 3.066850847097446 0  2.642835947146677 3.004722572263847 0  3.00572079136602 2.643686369832282 0  2.379681519528695 3.009845480685084 0  3.738118187020845 0.261881812979155 0  1.221837356849412 3.198622886495264 0  3.485728810692993 2.595258008101284 0  3.020775927714198 1.593667410275559 0  1.308803276122754 1.776840822656998 0  4 3.75 0  3.75 4 0  0.25 0 0  0 0.25 0  3.48982327850984 3.420534126896392 0  0.2834561551325083 1.016115968730929 0  0 1.25 0  2.580677957139492 0.2432364631684192 0  0 1.75 0  0 2.25 0  3.746815858172883 1.497184303404915 0  2.746761732548407 0.8671751520181329 0  1.354816007818416 3.759574000156623 0  2.993543198698849 3.706571484092185 0  0.2614187603426611 2.992395210366297 0  1.136681109685764 0.9472135414130078 0  1.005354660123817 2.562834331134171 0  2.504065710054304 3.731008263951622 0  4 0.75 0  4 1.25 0  4 1.75 0  1.25 0 0  0.75 4 0  2.25 0 0  4 2.25 0  4 2.75 0  4 3.25 0  0 2.75 0  2.25 4 0  3.25 0 0  2.75 4 0  0 0.75 0  3.25 4 0  0 3.25 0  1.75 4 0  2.107249236184017 0.2433280711998429 0  2.104314697667026 2.402586135599735 0  2.718249810428169 1.188142710009401 0  3.488920516847516 1.718103014492624 0  0.625 3.788773640282663 0  2.543078316093924 3.48713121016197 0  3.495435614028787 1.218932696658181 0  3.781690971096455 2.891631697063261 0  3.35518278298382 3.041539587430496 0  1.60095451999809 0.7846349279929736 0  0.2105862125876058 3.625 0  1.73820511005589 0.5881710981513568 0  1.495897261613472 2.47588660732607 0  3.417375359852902 0.7149089615302235 0  2.866398257410238 2.069090474528176 0  2.66406634281174 1.843394201472479 0  1.865495982590747 0.2045249430560988 0  0.5531194174747558 1.566925812141331 0  1.907789804113351 2.8509641849111 0  1.985715474981654 3.17257938668394 0  3.014844422297752 0.4809781619156832 0  0.5705424335715706 0.6202425086358888 0  0.2313877337132048 0.5635273867149863 0  3.02401552155857 2.404702026898773 0  2.577096361224372 2.379046248419333 0  2.738242006496645 2.708366532011663 0  1.946705612033579 1.215438844590237 0  1.66639300645671 3.402671362726329 0  1.237902975375692 1.334367210323196 0  0.2222038134249106 1.230590691255191 0  2.387835444398311 2.571396685115556 0  2.154858453482727 0.5002902596889653 0  2.009317834398079 0.694457316037922 0  3.10925086829468 1.913597393367055 0  0.3428193419966393 3.800673106313844 0  0.5803321120439422 2.76289846784853 0  2.043279794992122 3.556439075936398 0  2.083352313095959 3.792149426536632 0  2.368992994187903 1.175647991846967 0  1.335309750183184 2.040249166545691 0  0.9131801204681562 1.956481559590736 0  0.1792727597836805 2.625 0  2.107450937649036 0.887362507263796 0  2.326239842511811 0.9352102300461473 0  1.625 3.822703729346725 0  1.998474174604548 1.992272448335345 0  2.221172770002901 1.8749581607634 0  2.288699896681316 2.820444772769402 0  1.762836934589258 1.761414039283978 0  1.498868129178998 1.900131513503969 0  2.432820792760586 2.090605913334514 0  0.7892986594762861 3.097548418973694 0  2.693412517538291 3.335090137310781 0  1.569938105382809 3.144019542786131 0  1.693209416512704 2.847708365531018 0  2.206462682196094 1.301447325256467 0  0.8172891353353915 2.458270550797505 0  2.750299132871075 0.6619675363640569 0  2.507682740248351 0.4981553793301517 0  1.536104654869069 1.225312368155815 0  2.362114705695796 3.393775302302988 0  1.277796163328224 0.5078763133311966 0  2.584761938046034 1.35474442593524 0  3.456704601694018 3.776198771060771 0  0.965048776793751 0.5012744480164533 0  1.900878954659743 2.399104105263249 0  2.940686741546618 1.281090793093015 0  2.821668039374097 1.633517023167662 0  3.293169184940453 3.479291203147233 0  0.9563627363382479 0.803596248089911 0  0.7241272859974588 1.674344542769182 0  0.9691927481923047 1.539822077036368 0  3.479367515625482 3.210835345994752 0  3.649707244183817 3.048313271933545 0  3.84282084082096 3.125 0  3.777084602062634 3.457658933885011 0  1.785219224048172 1.09299185652342 0  0.9700349031773053 2.840315028567015 0  2.869014755295062 2.272679273245684 0  3.831649739225246 2.375 0  3.375 0.1553477958163178 0  3.453792903052364 0.5194756124448228 0  1.450424492648698 0.2075808683142722 0  0.1532780168284383 3.375 0  0.4881730880388107 3.386721057331055 0  0.6652972992167718 3.520821528668387 0  0.5054590710952342 3.174770309797832 0  3.818622612037357 0.6713127983046139 0  3.780907291254774 0.4660984889498793 0  1.380668701602463 3.564034742627494 0  1.364755769343606 1.588035553400588 0  0.6014266216515259 1.373247442548863 0  0.15 2.125 0  0.1623742900544199 1.860150851934696 0  3.552326751950906 2.182002616707591 0  3.125 3.850464116814463 0  0.1603940246374014 0.3737743321603988 0  0.1492931216713356 0.875 0  0.426604509448859 0.1795501400743006 0  1.208970313894109 3.005670418293948 0  0.1811135759119333 0.1811135759119333 0  2.402598408530423 0.1673047526807904 0  3.289567276550352 2.092431533056323 0  0.7739187530309795 2.905971370314223 0  
[...]
<PointData  Vectors="f_267"> 
<DataArray  type="Float64"  Name="f_267"  NumberOfComponents="3" format="ascii">1.0465483766925471e-05 1.5994040107663351e-04 0.0000000000000000e+00  -1.2450768403344091e-05 1.5848814309720637e-04 0.0000000000000000e+00  -1.6337550431387441e-04 -1.0227525387624177e-04 0.0000000000000000e+00  1.7448949942887624e-04 -2.0445893324049186e-05 0.0000000000000000e+00  1.6546356221480232e-02 9.8368871937941116e-01 0.0000000000000000e+00  -1.1506385233573692e-03 9.7600768484777856e-01 0.0000000000000000e+00  -1.4453901380300999e-02 9.8670870756884876e-01 0.0000000000000000e+00  -9.4151707363884108e-03 9.9891784884946611e-01 0.0000000000000000e+00  1.1884521788555254e-02 9.8993642542653637e-01 0.0000000000000000e+00  -2.2645175104391998e-03 9.6056226643759057e-01 0.0000000000000000e+00  -1.9007444945931654e-02 9.8522689194433088e-01 0.0000000000000000e+00  1.0259620029249426e-02 1.0010900215885776e+00 0.0000000000000000e+00  -5.0877964172962981e-05 -1.8065864227172890e-04 0.0000000000000000e+00  -3.0831254106959460e-04 8.0029642177549366e-05 0.0000000000000000e+00  2.9452040584003583e-04 2.0055674116330581e-04 0.0000000000000000e+00  9.2720127861981684e-05 8.1101272629012798e-05 0.0000000000000000e+00  3.5035956998735294e-06 -1.1168444733138180e-01 0.0000000000000000e+00  -1.0937799351096239e-04 8.3659514248052283e-05 0.0000000000000000e+00  1.3233917768770342e-01 -2.3265947607120041e-01 0.0000000000000000e+00  -1.6274307179200048e-01 -1.1048398123659653e-01 0.0000000000000000e+00  -3.5396809959598807e-01 -1.4600911859406274e-01 0.0000000000000000e+00  5.6444515122940103e-02 -6.7694365205400411e-02 0.0000000000000000e+00  4.2750521356137855e-01 -1.6471863764426842e-03 0.0000000000000000e+00  3.3348042450204430e-05 1.5162696378180916e-06 0.0000000000000000e+00  -8.3945578823014540e-05 1.9544475829727466e-04 0.0000000000000000e+00  1.0360535147803580e-04 2.0870583595822932e-04 0.0000000000000000e+00  -3.8137649054762340e-05 -2.4945367436430183e-06 0.0000000000000000e+00  -5.6432038511695856e-02 -6.7692721056204747e-02 0.0000000000000000e+00  2.2792338735482237e-01 -8.0394902839914226e-02 0.0000000000000000e+00  8.5420795640611863e-02 -1.3559904468979833e-01 0.0000000000000000e+00  -3.8801153085311763e-01 2.2664091959881255e-01 0.0000000000000000e+00  8.8329692612549984e-02 -2.1542819868965465e-01 0.0000000000000000e+00  1.1466101028213846e-01 -5.2936546186699206e-02 0.0000000000000000e+00  -3.2100304393228574e-01 -3.9207066557106597e-03 0.0000000000000000e+00  -4.4397490132163729e-02 -1.8934097718864243e-01 0.0000000000000000e+00  -2.6762876288616655e-01 -7.6757598587381085e-02 0.0000000000000000e+00  -3.0809658293922876e-02 -2.8199451889705972e-02 0.0000000000000000e+00  -2.1025627291300653e-05 -1.0942136373595330e-05 0.0000000000000000e+00  2.2811865868996264e-01 1.6505689674023249e-01 0.0000000000000000e+00  -7.1491456247930907e-02 -1.1525279940176461e-01 0.0000000000000000e+00  -1.4678186697147762e-06 2.2301252575272182e-04 0.0000000000000000e+00  -1.9843556701505510e-01 -1.9940519547043176e-01 0.0000000000000000e+00  -3.9990125034401741e-01 3.8478597896073413e-02 0.0000000000000000e+00  -1.0096781455435698e-01 -3.3749587789088077e-02 0.0000000000000000e+00  4.2489553387528917e-01 3.7614113241053571e-01 0.0000000000000000e+00  3.0700078247821178e-01 -1.8303417684025769e-01 0.0000000000000000e+00  3.0203970665067237e-01 -4.6740111189188527e-02 0.0000000000000000e+00  2.1953081649147887e-04 1.5379705710766588e-05 0.0000000000000000e+00  -1.1722667716654606e-01 -2.5836156129429305e-01 0.0000000000000000e+00  1.0531986845292811e-04 1.3772953498822897e-04 0.0000000000000000e+00  -1.7989422430545202e-01 8.3728736187842753e-02 0.0000000000000000e+00  2.8301176073268741e-01 3.6434688669757402e-02 0.0000000000000000e+00  1.3715874440914533e-03 -1.3527555970405294e-01 0.0000000000000000e+00  1.6596279987323456e-01 -1.1797053586402899e-01 0.0000000000000000e+00  -1.4765948974099610e-01 -3.2122009676504554e-02 0.0000000000000000e+00  3.0820821757582283e-02 -2.8199206639698195e-02 0.0000000000000000e+00  2.5719031906981911e-05 -1.2063612749729557e-05 0.0000000000000000e+00  -4.2254755922986643e-02 -9.9548016286568480e-02 0.0000000000000000e+00  1.4670024881329944e-06 2.3102884700969246e-04 0.0000000000000000e+00  -1.2323951109618613e-04 1.7416149029074752e-04 0.0000000000000000e+00  4.2266737176318764e-02 -9.9550852075538099e-02 0.0000000000000000e+00  6.2092478762520190e-05 2.4958864879015560e-05 0.0000000000000000e+00  -4.9795197621379909e-04 8.4082546790833969e-04 0.0000000000000000e+00  3.5154412729056889e-04 4.9697057150399821e-04 0.0000000000000000e+00  -2.0566780511638255e-01 4.7762751399394360e-01 0.0000000000000000e+00  -2.9387993379866153e-04 5.2111335903339638e-05 0.0000000000000000e+00  -6.8331760528608725e-05 2.9635511169394980e-05 0.0000000000000000e+00  -9.8083657592209217e-02 -7.3279065548303324e-02 0.0000000000000000e+00  4.0939278340497792e-01 -7.1591928599148598e-03 0.0000000000000000e+00  -4.4373338041855628e-02 -2.4232349145268947e-01 0.0000000000000000e+00  3.0706817968141120e-01 -1.2953692463549898e-01 0.0000000000000000e+00  -1.0083342370467489e-01 1.7137092575032487e-01 0.0000000000000000e+00  1.2501554239055321e-01 -2.2369436977470170e-02 0.0000000000000000e+00  1.1745512946139729e-01 -1.8166312185930505e-01 0.0000000000000000e+00  9.2494943712677621e-02 -8.5978447626075358e-02 0.0000000000000000e+00  -4.4617242602740836e-01 2.0436556156269287e-02 0.0000000000000000e+00  1.7528140837416456e-01 -2.2589662572010925e-02 0.0000000000000000e+00  2.1573347381012287e-01 -1.6372446939451252e-01 0.0000000000000000e+00  -2.9787330274761149e-02 -1.3498293722454804e-02 0.0000000000000000e+00  1.0943626508859575e-01 -2.5972302430441585e-01 0.0000000000000000e+00  1.4525632562723872e-01 4.4413660128670934e-01 0.0000000000000000e+00  -2.2179159998376691e-01 -1.9488316765387179e-01 0.0000000000000000e+00  -4.3501520612374334e-01 4.6323235485957304e-01 0.0000000000000000e+00  7.4529236848930869e-02 -4.8788179639856939e-02 0.0000000000000000e+00  6.7487923718722295e-02 -1.3004432209941590e-02 0.0000000000000000e+00  4.5303335552893398e-02 -1.6098878087670347e-02 0.0000000000000000e+00  -2.4132145867599716e-01 -2.6112376403751365e-02 0.0000000000000000e+00  -3.5639289906627281e-01 -7.9136944152024838e-02 0.0000000000000000e+00  -2.9652043553103424e-01 -1.4642132278620790e-01 0.0000000000000000e+00  -2.2832442249973656e-01 -1.2345647335989748e-01 0.0000000000000000e+00  -1.6250133418491125e-01 -2.2207920106861474e-02 0.0000000000000000e+00  -1.3948311950127179e-01 -1.7117455125091474e-01 0.0000000000000000e+00  3.0152767508478617e-02 -1.6758432145422675e-01 0.0000000000000000e+00  1.5819147547404960e-01 4.3918308414347823e-02 0.0000000000000000e+00  4.0315074659858358e-01 1.6042895617037625e-01 0.0000000000000000e+00  6.9388026438497924e-02 1.4980615829072497e-01 0.0000000000000000e+00  6.9766889280394720e-02 5.5252418222181972e-02 0.0000000000000000e+00  -4.3513048719694726e-02 4.1668501602964078e-02 0.0000000000000000e+00  4.7846035184214653e-02 -1.1591853389395368e-01 0.0000000000000000e+00  -3.3349886700886039e-01 7.4680166947628246e-02 0.0000000000000000e+00  -1.8630368636577355e-01 1.1011375533202137e-02 0.0000000000000000e+00  -7.0162349547180702e-02 -3.6533127968780790e-02 0.0000000000000000e+00  1.6240356088925018e-01 -6.3708949471283832e-02 0.0000000000000000e+00  3.6091524457224206e-01 2.1055867866973543e-01 0.0000000000000000e+00  -2.9880066367385067e-02 -1.1471245765982842e-01 0.0000000000000000e+00  2.4745115279983312e-01 -5.9384583007554507e-03 0.0000000000000000e+00  3.7503408161874063e-01 -8.4376530796748603e-02 0.0000000000000000e+00  -1.1153145509308153e-01 -1.3234960826058348e-01 0.0000000000000000e+00  -4.6445630106689737e-06 -6.7065038749778423e-07 0.0000000000000000e+00  -9.0412277830717470e-03 -1.0291751534903566e-02 0.0000000000000000e+00  -4.9972272161605193e-02 -1.4906015602452008e-01 0.0000000000000000e+00  -7.2534447952284517e-02 -8.7633476704155042e-02 0.0000000000000000e+00  4.8909376049043565e-02 -2.2016116149908024e-01 0.0000000000000000e+00  2.4670715603997134e-01 -1.9630865227093924e-01 0.0000000000000000e+00  -2.5311754623059146e-01 -2.0697955946768631e-01 0.0000000000000000e+00  2.6410449999134827e-01 3.2855062194890483e-01 0.0000000000000000e+00  -1.5487567692677853e-01 -6.1206178668272694e-02 0.0000000000000000e+00  1.2160911086242547e-01 -1.0740140607013138e-01 0.0000000000000000e+00  3.6023535909077664e-01 1.0226263145231909e-03 0.0000000000000000e+00  -5.1067259167904666e-02 -1.2696844795187930e-02 0.0000000000000000e+00  2.7674336365804370e-01 -7.4509042274203824e-02 0.0000000000000000e+00  1.8435142714438335e-01 -1.2218255235569424e-02 0.0000000000000000e+00  -4.6632930763532066e-01 2.0128978276955289e-01 0.0000000000000000e+00  -3.8589486352454583e-01 -8.9769836096902450e-02 0.0000000000000000e+00  -1.2681344612691525e-01 -6.9316725793122536e-02 0.0000000000000000e+00  -3.2930260059726763e-01 2.5007068952382339e-01 0.0000000000000000e+00  5.1744715430092091e-02 6.0624663069519846e-01 0.0000000000000000e+00  -1.0449833305069041e-04 1.0738279826467539e-04 0.0000000000000000e+00  -1.9616812856078913e-01 -6.0710915575980136e-03 0.0000000000000000e+00  -5.7848984799875165e-02 -8.1534189633342691e-03 0.0000000000000000e+00  -2.4202017369390335e-06 2.8191070278787452e-04 0.0000000000000000e+00  6.6233368760320932e-02 -9.5845335838972881e-02 0.0000000000000000e+00  3.3631862857669603e-01 6.6109492497830880e-01 0.0000000000000000e+00  -4.0138545136357290e-01 1.9593849432295869e-02 0.0000000000000000e+00  1.1244821956814801e-04 2.1269534209504947e-04 0.0000000000000000e+00  -6.5307930667950834e-02 6.1251951438479246e-01 0.0000000000000000e+00  2.2399217810752814e-01 -2.1659173956945038e-01 0.0000000000000000e+00  3.9926038178842982e-01 -9.1532730852572824e-02 0.0000000000000000e+00  -4.0621713710731844e-01 -6.3724283696285064e-02 0.0000000000000000e+00  4.5926333771030575e-01 8.5769065859400709e-02 0.0000000000000000e+00  -2.1444308400779638e-01 -7.1381007163294347e-02 0.0000000000000000e+00  3.7648636898036984e-02 -2.6018095649842266e-01 0.0000000000000000e+00  2.3670843399411173e-01 -7.3842906299691105e-02 0.0000000000000000e+00  -1.1701593592104827e-01 -2.1187986736069322e-01 0.0000000000000000e+00  -2.4753704883395516e-01 3.0880594065530881e-01 0.0000000000000000e+00  -1.9847861715476491e-04 -2.2402781535811301e-05 0.0000000000000000e+00  -2.5068900768373442e-01 -2.1368787927480676e-01 0.0000000000000000e+00  -1.1434072204326953e-02 -2.6060917022895291e-01 0.0000000000000000e+00  -1.3912486307323552e-01 -2.4107997916272306e-01 0.0000000000000000e+00  -2.6682798423094667e-01 1.8074107819687268e-01 0.0000000000000000e+00  -1.5488673977780570e-01 2.6109340383326740e-02 0.0000000000000000e+00  -8.4991639351563635e-05 2.2229051576566180e-04 0.0000000000000000e+00  -7.3346505383720534e-02 2.7112912849066740e-02 0.0000000000000000e+00  -5.2634304647057917e-05 1.9406224472852934e-05 0.0000000000000000e+00  -8.0134596022396296e-02 -1.0390386849995870e-02 0.0000000000000000e+00  1.3194844980805011e-02 -1.1748005724410850e-01 0.0000000000000000e+00  4.3123358242259491e-02 -1.3760597231556282e-01 0.0000000000000000e+00  -7.2827599078003763e-02 -5.7768570095503693e-02 0.0000000000000000e+00  -3.7763654431560723e-01 3.9479898358146687e-01 0.0000000000000000e+00  1.1680421155894305e-01 -3.4848899706939898e-02 0.0000000000000000e+00  2.7488525585268947e-01 9.4152418562814547e-02 0.0000000000000000e+00  1.5571782312470642e-01 1.5572821836903504e-02 0.0000000000000000e+00  -1.1876988385037185e-01 -9.8430825528962998e-02 0.0000000000000000e+00  1.4238862661097806e-01 -8.4144109225005814e-02 0.0000000000000000e+00  2.1078836342896665e-01 -1.1658892322757249e-01 0.0000000000000000e+00  1.2692649397125372e-01 -1.4274449706399758e-01 0.0000000000000000e+00  2.5757974518545412e-01 -1.2485802167664144e-01 0.0000000000000000e+00  -2.6776712837112963e-02 -9.7122301615349994e-03 0.0000000000000000e+00  3.9080680387777883e-01 6.0365599933505446e-02 0.0000000000000000e+00  7.8833771324231652e-02 -1.1127226476017521e-01 0.0000000000000000e+00  -8.6823449368341674e-02 -1.6321704670235229e-01 0.0000000000000000e+00  -2.1143423499443625e-01 -1.1023306596340840e-01 0.0000000000000000e+00  9.0625112552845544e-03 -1.0288195445207140e-02 0.0000000000000000e+00  8.5477749452075203e-06 -2.9930035817783260e-06 0.0000000000000000e+00  6.2724784316663836e-06 2.3741861221825123e-04 0.0000000000000000e+00  1.8865242193773251e-04 4.0235850085938049e-07 0.0000000000000000e+00  8.0468963969102747e-02 -3.4372590774619731e-02 0.0000000000000000e+00  -8.3351575971988126e-02 2.5935968064499515e-01 0.0000000000000000e+00  4.7770226540144381e-04 2.5091998714388877e-04 0.0000000000000000e+00  -1.0075295261130879e-01 -1.0619057388917587e-02 0.0000000000000000e+00  -2.8656687157324802e-04 1.8686453011891100e-04 0.0000000000000000e+00  1.9576672286196408e-04 3.3487119585580378e-04 0.0000000000000000e+00  -5.4739489801683493e-02 -1.0416665552168324e-01 0.0000000000000000e+00  -1.9371270740808477e-01 -9.1075887151416207e-02 0.0000000000000000e+00  1.6884590348629330e-01 4.4494611717630951e-03 0.0000000000000000e+00  8.1830817033231432e-02 -1.2439248509643718e-02 0.0000000000000000e+00  7.1802231866348834e-02 2.4169203352561985e-01 0.0000000000000000e+00  -4.2128401434469775e-01 1.0358243392388085e-01 0.0000000000000000e+00  4.6186141130275371e-01 2.0695526107455056e-01 0.0000000000000000e+00  1.1658798268777278e-01 -1.3122151919039494e-02 0.0000000000000000e+00  -4.8207134800057408e-02 -4.7952714787461576e-02 0.0000000000000000e+00  -5.4164752961667416e-02 -8.5466758927573813e-02 0.0000000000000000e+00  -2.3070429568888665e-02 -1.0857955681921803e-01 0.0000000000000000e+00  -1.4166087415815409e-04 1.8357309233696330e-04 0.0000000000000000e+00  4.6515613474085562e-05 2.1042383941744715e-04 0.0000000000000000e+00  -7.7148942909920770e-05 5.3912741181239547e-05 0.0000000000000000e+00  2.3082776367376198e-02 -1.0857939891813453e-01 0.0000000000000000e+00  5.4176516500421878e-02 -8.5469850451234994e-02 0.0000000000000000e+00  4.8218617441574713e-02 -4.7952649941066468e-02 0.0000000000000000e+00  -4.2394442702040834e-04 2.2739225062060495e-04 0.0000000000000000e+00  7.9090614509228134e-05 5.9455760908273312e-05 0.0000000000000000e+00  -2.9434182841818417e-05 -7.8162405577514540e-06 0.0000000000000000e+00  5.2178837258191042e-05 1.1303968668298385e-05 0.0000000000000000e+00  2.2633354566067084e-04 1.4248995100119952e-05 0.0000000000000000e+00  3.2189373596234515e-05 -8.8987349959474767e-06 0.0000000000000000e+00  -2.2718632610361272e-04 5.0788326680242816e-05 0.0000000000000000e+00  9.6548985705146234e-05 1.0547029012456685e-04 0.0000000000000000e+00  -1.4078717239409214e-01 -1.0712289183525450e-02 0.0000000000000000e+00  1.8195967939432262e-01 -2.3664821653180879e-01 0.0000000000000000e+00  -1.8516158620427539e-01 -1.4317246273908410e-01 0.0000000000000000e+00  -4.1521552939189389e-02 -1.2805631378409232e-01 0.0000000000000000e+00  6.5806154760873342e-02 2.0297776882241363e-02 0.0000000000000000e+00  1.8270441422109832e-01 -4.1546287257480136e-02 0.0000000000000000e+00  -9.2069559866469419e-02 -9.6135597982565990e-02 0.0000000000000000e+00  7.2840861459194273e-02 -7.7795737855935826e-02 0.0000000000000000e+00  1.1333028351844068e-01 -7.6696429242328154e-02 0.0000000000000000e+00  -3.7713180489311193e-01 -3.3787502140689117e-02 0.0000000000000000e+00  1.6239664450022343e-02 2.6383333233958219e-02 0.0000000000000000e+00  -3.1402023298081322e-01 -3.2007133890690813e-02 0.0000000000000000e+00  3.2988915511346972e-01 -1.3629059755798309e-01 0.0000000000000000e+00  -9.8427287875785446e-02 -4.8793368483957503e-02 0.0000000000000000e+00  1.7837960355941290e-02 -1.9588081200706817e-01 0.0000000000000000e+00  -4.7533197056379782e-02 -2.1671524616391818e-01 0.0000000000000000e+00  -1.3711633468166531e-01 -6.1273454525032902e-03 0.0000000000000000e+00  -2.8251718490053734e-01 7.3937751129168694e-01 0.0000000000000000e+00  3.3955800485368781e-01 -1.4221480553639443e-01 0.0000000000000000e+00  3.2670183526677810e-01 -8.6421667675921673e-02 0.0000000000000000e+00  -1.1709828525436998e-01 -3.0216969576855962e-02 0.0000000000000000e+00  -1.5609992126221564e-01 1.3853089134041943e-01 0.0000000000000000e+00  -3.0948798718958781e-02 6.7620133742182106e-02 0.0000000000000000e+00  8.6284164660866358e-02 -1.6301053198866297e-01 0.0000000000000000e+00  1.1826018593038716e-01 -2.1057242713619456e-01 0.0000000000000000e+00  1.6906590531713636e-01 -1.5674046906987851e-01 0.0000000000000000e+00  -3.2185024089552294e-01 -1.5970593896818530e-01 0.0000000000000000e+00  3.2356773917316090e-01 -2.5834463243512327e-02 0.0000000000000000e+00  -4.4733556400989299e-01 3.5652765384384791e-02 0.0000000000000000e+00  -6.1848956796166130e-02 3.2087955661652362e-01 0.0000000000000000e+00  1.9320992598781764e-01 -2.0137665653371836e-01 0.0000000000000000e+00  -2.3481881929927795e-01 -4.0073193876832724e-02 0.0000000000000000e+00  -3.0356603610377830e-01 -6.5199443191522474e-02 0.0000000000000000e+00  -1.8127506078892464e-02 -1.6825378465542243e-01 0.0000000000000000e+00  1.9586640016260655e-02 1.2703727724709318e-02 0.0000000000000000e+00  3.0068519348977779e-01 4.6643089688749007e-01 0.0000000000000000e+00  2.3116382535656668e-01 -3.0653664000597769e-02 0.0000000000000000e+00  1.2486200210915110e-01 -7.8725486958440404e-03 0.0000000000000000e+00  -2.4486980461831034e-01 -1.5947948398797268e-01 0.0000000000000000e+00  3.9142931990380748e-02 -1.4665231298774092e-01 0.0000000000000000e+00  -6.5543111715465202e-02 2.5741696545309567e-01 0.0000000000000000e+00  3.6380768910979709e-02 3.3346904291672147e-01 0.0000000000000000e+00  -3.0864310935317507e-01 -1.0351022600502088e-01 0.0000000000000000e+00  -2.6825170566354989e-01 -1.1529141714974191e-01 0.0000000000000000e+00  1.3025923100142373e-01 -2.0928288385372133e-03 0.0000000000000000e+00  -4.1092459721744383e-03 -2.6933797995067249e-01 0.0000000000000000e+00  -5.4870215545017240e-02 -2.5874553908249293e-01 0.0000000000000000e+00  2.5923107834663522e-01 -1.6215481640697640e-01 0.0000000000000000e+00  -1.4992937129500492e-01 -2.4303455462345419e-01 0.0000000000000000e+00  -8.2059788328887898e-02 -2.0534743547266254e-01 0.0000000000000000e+00  3.3506811218025886e-02 -2.4317557951425781e-01 0.0000000000000000e+00  3.2438630850568784e-01 2.2986411315551550e-01 0.0000000000000000e+00  1.8663279904752370e-01 -6.1174224592316237e-02 0.0000000000000000e+00  3.9316431453736511e-01 -3.5151288701854910e-02 0.0000000000000000e+00  3.8344158463203259e-01 -1.0968518447679029e-01 0.0000000000000000e+00  -2.5348984203910474e-01 -1.8598427861877828e-01 0.0000000000000000e+00  4.3904297451480823e-01 4.2676379460785496e-01 0.0000000000000000e+00  -1.7774029000370983e-01 -5.9273188207248070e-02 0.0000000000000000e+00  -1.8428867851536299e-01 -3.9867707389963682e-02 0.0000000000000000e+00  -4.0664398355899495e-01 -8.2586969772541444e-02 0.0000000000000000e+00  2.2931696714310887e-01 -5.7146433418273961e-02 0.0000000000000000e+00  -2.9509528603015178e-01 2.5494247935046423e-02 0.0000000000000000e+00  -1.8024829643341989e-01 -1.7734022189970380e-01 0.0000000000000000e+00  3.8151187466835462e-02 -6.4720658197460409e-03 0.0000000000000000e+00  -2.4548782298236499e-01 6.8723285880402704e-02 0.0000000000000000e+00  2.1182838411651519e-01 -2.3182301752307036e-01 0.0000000000000000e+00  -1.4403584255897708e-01 -1.3936661461596794e-01 0.0000000000000000e+00  -9.3705895673193082e-02 -1.8683722610711587e-01 0.0000000000000000e+00  9.3441265791536651e-02 -3.0525424835169280e-02 0.0000000000000000e+00  -3.4825923650767765e-01 1.4575233192099227e-01 0.0000000000000000e+00  -3.6720798669774041e-01 6.0544273703897622e-01 0.0000000000000000e+00  -4.4180985754330598e-01 2.3648981893585153e-01 0.0000000000000000e+00  9.6135338811217122e-02 -5.5286731922415337