<?xml version="1.0"?>
<VTKFile type="UnstructuredGrid"  version="0.1"  >
<UnstructuredGrid>
<Piece  NumberOfPoints="1630" NumberOfCells="3112">
<Points>
<DataArray  type="Float64"  NumberOfComponents="3"  format="ascii">0 4 0  0 0 0  4 0 0  4 4 0  0.6414213562373096 2.14142135623731 0  0.7 2 0  0.6414213562373094 1.858578643762691 0  0.4999999999999999 1.8 0  0.3585786437626904 1.858578643762691 0  0.3 2 0  0.3585786437626905 2.14142135623731 0  0.5 2.2 0  0 2 0  0 3 0  0 1 0  2 4 0  4 2 0  2 0 0  2.35 2.35 0  2.93875 1.06125 0  1.730459154046887 1.288113493264872 0  4 3 0  1.402275403750171 3.011088722007612 0  3 4 0  1 0 0  1 4 0  3 0 0  4 1 0  2.5 3.243939393939394 0  3.243939393939394 2.5 0  0.8891231146686027 1.000548053332123 0  1.538396929127129 2.111843048400676 0  3.274864751251965 3.274864751251965 0  1.5 0.5618255776495424 0  2.898219696969697 1.821590909090909 0  2.250097528577688 0.7245912909754488 0  4 0.5 0  3.5 0 0  0.6987997546338796 3.30120024536612 0  3.494857264561815 1.472144236999614 0  0.5 0 0  2.379289810545312 1.41267842841108 0  1.172152117838605 1.547024035219042 0  3.25 0.5468212603062425 0  0.7961929573292492 2.715073054663669 0  1.831175378192913 2.616087203228165 0  1.895923256631162 3.387810728409143 0  0 0.5 0  1.972621710799394 1.778832098715638 0  1.5 4 0  0.75 0.4787134635220818 0  1.193317235248461 3.502363103554577 0  3.46245063379422 2.008787840834658 0  2.901708172345216 2.901708172345216 0  2.718664983897782 0.4591820355455583 0  4 3.5 0  3.5 4 0  4 1.5 0  0.5 4 0  1.5 0 0  4 2.5 0  2.5 4 0  0 2.5 0  0 1.5 0  0.4444076268498212 1.25 0  0 3.5 0  2.5 0 0  3.503278004261107 0.9748576284519844 0  1.261951682304298 2.529922098363911 0  2.431742013944691 1.879843934510911 0  2.118108019851059 2.980591400080257 0  0.3823975899161232 0.75 0  2.75 3.621969696969697 0  2.790973548166894 2.460734624178322 0  3.538447632451404 2.876295485438267 0  1.316071954056614 1.125954851731804 0  2.25 3.64255658768052 0  2.492681871845633 2.770030115545854 0  1.129918682160699 1.975560718217893 0  1.952591353056031 2.202319822556797 0  0.3596132768695277 2.75 0  1.563215406116365 1.694598722970671 0  0.7754208380220989 1.479020590558829 0  3.68564168164192 3.25 0  3.25 3.680101480632268 0  3.635853397698684 3.635247749499161 0  1.920699775730421 0.432828065132199 0  1.834142427070557 0.8623754337095968 0  2.143886385217995 1.100704900884951 0  2.537739073944026 1.008872055777605 0  2.349305707707794 0.3534171873255952 0  2.782910794439386 1.434193620597931 0  3.104500057814295 2.14376424202131 0  0.8438736584523897 3.652982061810703 0  1.007302929383131 3.051307133599802 0  0.3065560336568765 3.25 0  0.4551119075949588 3.611630728772171 0  0.3626894884549623 0.3626894884549623 0  3.621969696969697 2.373955881884639 0  1.109249784629239 0.6623987595311139 0  1.25 0.2809127888247712 0  3.630446598045403 0.6106562213083707 0  2.899270369442534 3.277302554154646 0  0.9699028314386563 2.306575839175969 0  3.73287450331796 1.75 0  1.571894539766132 3.612373565839661 0  1.762533569588862 3.050808106798585 0  3.143538341898782 1.365854898173824 0  3.75 0 0  4 0.25 0  3.24302459493862 1.726236942685906 0  3.739483774508186 1.227571988934564 0  2.632856794240554 2.156993966426024 0  2.175164472110919 2.64363982028638 0  2.04089356353854 1.423219413804664 0  0.5979637000062453 2.983289714905934 0  2.94917035721814 0.7161810031103968 0  3.217487586302246 2.824098952680676 0  1.451029823010967 3.321902102400569 0  3.483157274963196 0.3228588149688616 0  2.190436241627436 3.284278001899603 0  1.876632108088082 3.70603191479251 0  1.013250229274632 1.282791261279627 0  1.447487756837019 1.409336002640087 0  3.223435354030419 0.8514932231793093 0  0.9348821161036954 1.73998989276749 0  0.3043823394791414 2.445803695716451 0  1.75 0 0  1.64699238875595 0.2906989171316907 0  3.185115278792098 0.2459266590843886 0  0.25 4 0  3.739425499050637 2.651598051390531 0  0.6035529124143404 2.483151322161818 0  1.360272891347578 0.8283175943337975 0  1.25 4 0  0.3154962796048327 1.540839533991945 0  1.702556220567684 2.353647321276259 0  1.525190685674622 2.714197882084063 0  1.592888950235815 1.029115537230018 0  1.182681419642508 2.814084641633932 0  2.550385747082849 0.7084144620552342 0  2.22211593889242 2.085581966900729 0  1.252870641368245 2.239181012936042 0  2.570208194541047 1.627769933762895 0  0.5845874300100842 0.9787696457768286 0  0 3.75 0  1.799318170313365 1.55409264491296 0  1.783713957496643 1.982114600219476 0  2.238331043521802 1.665032290682603 0  0.7534756737341178 0.7572495099273263 0  0.9625156541898719 0.2850603002098919 0  0.75 0 0  0.6080111964388567 0.2482288467398792 0  2.75 0 0  2.909813075069755 0.2605198315454781 0  3.732920089851 2.108062630896614 0  3.375365040841646 2.264256054306927 0  3.758112501697613 0.8595359613889522 0  0.720861261720803 1.213309130769304 0  3.088305401707915 3.466798931664568 0  0.9444676672764549 3.40569239682695 0  1.092723226424396 3.74965276853833 0  3.271169882229338 1.122294073194924 0  3.109722076499734 3.066850847097446 0  2.642835947146677 3.004722572263847 0  3.00572079136602 2.643686369832282 0  2.379681519528695 3.009845480685084 0  3.738118187020845 0.261881812979155 0  1.221837356849412 3.198622886495264 0  3.485728810692993 2.595258008101284 0  3.020775927714198 1.593667410275559 0  1.308803276122754 1.776840822656998 0  4 3.75 0  3.75 4 0  0.25 0 0  0 0.25 0  3.48982327850984 3.420534126896392 0  0.2834561551325083 1.016115968730929 0  0 1.25 0  2.580677957139492 0.2432364631684192 0  0 1.75 0  0 2.25 0  3.746815858172883 1.497184303404915 0  2.746761732548407 0.8671751520181329 0  1.354816007818416 3.759574000156623 0  2.993543198698849 3.706571484092185 0  0.2614187603426611 2.992395210366297 0  1.136681109685764 0.9472135414130078 0  1.005354660123817 2.562834331134171 0  2.504065710054304 3.731008263951622 0  4 0.75 0  4 1.25 0  4 1.75 0  1.25 0 0  0.75 4 0  2.25 0 0  4 2.25 0  4 2.75 0  4 3.25 0  0 2.75 0  2.25 4 0  3.25 0 0  2.75 4 0  0 0.75 0  3.25 4 0  0 3.25 0  1.75 4 0  2.107249236184017 0.2433280711998429 0  2.104314697667026 2.402586135599735 0  2.718249810428169 1.188142710009401 0  3.488920516847516 1.718103014492624 0  0.625 3.788773640282663 0  2.543078316093924 3.48713121016197 0  3.495435614028787 1.218932696658181 0  3.781690971096455 2.891631697063261 0  3.35518278298382 3.041539587430496 0  1.60095451999809 0.7846349279929736 0  0.2105862125876058 3.625 0  1.73820511005589 0.5881710981513568 0  1.495897261613472 2.47588660732607 0  3.417375359852902 0.7149089615302235 0  2.866398257410238 2.069090474528176 0  2.66406634281174 1.843394201472479 0  1.865495982590747 0.2045249430560988 0  0.5531194174747558 1.566925812141331 0  1.907789804113351 2.8509641849111 0  1.985715474981654 3.17257938668394 0  3.014844422297752 0.4809781619156832 0  0.5705424335715706 0.6202425086358888 0  0.2313877337132048 0.5635273867149863 0  3.02401552155857 2.404702026898773 0  2.577096361224372 2.379046248419333 0  2.738242006496645 2.708366532011663 0  1.946705612033579 1.215438844590237 0  1.66639300645671 3.402671362726329 0  1.237902975375692 1.334367210323196 0  0.2222038134249106 1.230590691255191 0  2.387835444398311 2.571396685115556 0  2.154858453482727 0.5002902596889653 0  2.009317834398079 0.694457316037922 0  3.10925086829468 1.913597393367055 0  0.3428193419966393 3.800673106313844 0  0.5803321120439422 2.76289846784853 0  2.043279794992122 3.556439075936398 0  2.083352313095959 3.792149426536632 0  2.368992994187903 1.175647991846967 0  1.335309750183184 2.040249166545691 0  0.9131801204681562 1.956481559590736 0  0.1792727597836805 2.625 0  2.107450937649036 0.887362507263796 0  2.326239842511811 0.9352102300461473 0  1.625 3.822703729346725 0  1.998474174604548 1.992272448335345 0  2.221172770002901 1.8749581607634 0  2.288699896681316 2.820444772769402 0  1.762836934589258 1.761414039283978 0  1.498868129178998 1.900131513503969 0  2.432820792760586 2.090605913334514 0  0.7892986594762861 3.097548418973694 0  2.693412517538291 3.335090137310781 0  1.569938105382809 3.144019542786131 0  1.693209416512704 2.847708365531018 0  2.206462682196094 1.301447325256467 0  0.8172891353353915 2.458270550797505 0  2.750299132871075 0.6619675363640569 0  2.507682740248351 0.4981553793301517 0  1.536104654869069 1.225312368155815 0  2.362114705695796 3.393775302302988 0  1.277796163328224 0.5078763133311966 0  2.584761938046034 1.35474442593524 0  3.456704601694018 3.776198771060771 0  0.965048776793751 0.5012744480164533 0  1.900878954659743 2.399104105263249 0  2.940686741546618 1.281090793093015 0  2.821668039374097 1.633517023167662 0  3.293169184940453 3.479291203147233 0  0.9563627363382479 0.803596248089911 0  0.7241272859974588 1.674344542769182 0  0.9691927481923047 1.539822077036368 0  3.479367515625482 3.210835345994752 0  3.649707244183817 3.048313271933545 0  3.84282084082096 3.125 0  3.777084602062634 3.457658933885011 0  1.785219224048172 1.09299185652342 0  0.9700349031773053 2.840315028567015 0  2.869014755295062 2.272679273245684 0  3.831649739225246 2.375 0  3.375 0.1553477958163178 0  3.453792903052364 0.5194756124448228 0  1.450424492648698 0.2075808683142722 0  0.1532780168284383 3.375 0  0.4881730880388107 3.386721057331055 0  0.6652972992167718 3.520821528668387 0  0.5054590710952342 3.174770309797832 0  3.818622612037357 0.6713127983046139 0  3.780907291254774 0.4660984889498793 0  1.380668701602463 3.564034742627494 0  1.364755769343606 1.588035553400588 0  0.6014266216515259 1.373247442548863 0  0.15 2.125 0  0.1623742900544199 1.860150851934696 0  3.552326751950906 2.182002616707591 0  3.125 3.850464116814463 0  0.1603940246374014 0.3737743321603988 0  0.1492931216713356 0.875 0  0.426604509448859 0.1795501400743006 0  1.208970313894109 3.005670418293948 0  0.1811135759119333 0.1811135759119333 0  2.402598408530423 0.1673047526807904 0  3.289567276550352 2.092431533056323 0  0.7739187530309795 2.905971370314223 0  
[...]
<PointData  Vectors="f_237"> 
<DataArray  type="Float64"  Name="f_237"  NumberOfComponents="3" format="ascii">1.1093096077882153e-03 5.6451281404481503e-05 0.0000000000000000e+00  1.1091424196309225e-03 -5.5826833473635355e-05 0.0000000000000000e+00  6.0569921123536092e-04 4.1479160650882619e-05 0.0000000000000000e+00  6.1053521645837753e-04 -5.6766303643449514e-05 0.0000000000000000e+00  1.3464774838711146e-03 -5.8649527862358289e-04 0.0000000000000000e+00  5.5841228668836770e-04 -1.5082049571338076e-05 0.0000000000000000e+00  1.0365594601009650e-03 4.4979931186883275e-04 0.0000000000000000e+00  2.9889034808978474e-03 -1.9474048030743854e-04 0.0000000000000000e+00  3.9153726706726783e-03 -5.0800890644528158e-04 0.0000000000000000e+00  4.7191401647510914e-03 -2.7192823314050934e-04 0.0000000000000000e+00  4.1819338834170527e-03 1.0610864628070845e-03 0.0000000000000000e+00  2.5581792521660999e-03 -7.6848731723454066e-05 0.0000000000000000e+00  9.9656814081496747e-01 3.3927005355775402e-07 0.0000000000000000e+00  7.4958588615344368e-01 1.8556408737170933e-04 0.0000000000000000e+00  7.4959422332188830e-01 -1.8163647391133237e-04 0.0000000000000000e+00  1.6229448213981419e-04 1.4203657840915527e-04 0.0000000000000000e+00  1.0098833042024442e+00 5.7772373378030081e-05 0.0000000000000000e+00  1.5447523475111132e-04 -1.3534237191991746e-04 0.0000000000000000e+00  9.1798880802246163e-01 -3.7078471702427708e-02 0.0000000000000000e+00  7.8204216949421712e-01 2.4982752941197516e-02 0.0000000000000000e+00  8.5991603185814125e-01 1.1905270062044217e-01 0.0000000000000000e+00  7.5851486895660347e-01 -2.0124273485965283e-02 0.0000000000000000e+00  8.5901062096741643e-01 -1.0238687504862695e-01 0.0000000000000000e+00  1.2920900825099998e-04 6.0917568021561881e-05 0.0000000000000000e+00  1.8610949627763230e-04 -2.8709281888358146e-04 0.0000000000000000e+00  2.0051020667286425e-04 3.1053058748986329e-04 0.0000000000000000e+00  1.3281690361414272e-04 -6.2625538771101237e-05 0.0000000000000000e+00  7.5842622981979546e-01 2.0309528880602435e-02 0.0000000000000000e+00  6.3918230739165993e-01 -3.1227699584335654e-02 0.0000000000000000e+00  9.3223817177835000e-01 -1.4898558369099599e-02 0.0000000000000000e+00  9.7351272568191261e-01 -1.5832689828881898e-02 0.0000000000000000e+00  7.4883764032762490e-01 -4.5768096445440845e-02 0.0000000000000000e+00  5.9475482131128810e-01 -1.6612153975789093e-02 0.0000000000000000e+00  6.0866543985335841e-01 3.8971140071739893e-02 0.0000000000000000e+00  9.6908540106787588e-01 9.0397141385273345e-03 0.0000000000000000e+00  6.3600234940169698e-01 4.0124586319142660e-02 0.0000000000000000e+00  4.3439810616035129e-01 3.1606045435924518e-02 0.0000000000000000e+00  1.1655669874139778e-04 -2.6271513533998111e-05 0.0000000000000000e+00  7.5093257302083405e-01 8.6359850276552297e-02 0.0000000000000000e+00  9.3045836227848078e-01 1.3084113711137275e-02 0.0000000000000000e+00  1.5831173121012807e-04 -3.8408445713498555e-04 0.0000000000000000e+00  8.8830797341995815e-01 4.9687624433328303e-02 0.0000000000000000e+00  7.9815938983339252e-01 2.0514675684694963e-01 0.0000000000000000e+00  4.7189513495313290e-01 1.2566874755193700e-02 0.0000000000000000e+00  1.0820401239334680e+00 -1.1631480229421393e-02 0.0000000000000000e+00  8.6317405949176085e-01 -1.0598715591783263e-01 0.0000000000000000e+00  5.9735936379925458e-01 -4.3826223588733830e-02 0.0000000000000000e+00  4.3714407782107628e-01 -3.2449755897231155e-05 0.0000000000000000e+00  8.7449510111977502e-01 4.3922214632626751e-02 0.0000000000000000e+00  1.7599524141967792e-04 1.9513983268266432e-04 0.0000000000000000e+00  5.5379966668842717e-01 -4.3607742557850798e-02 0.0000000000000000e+00  5.8515931755660178e-01 -1.2792463647521743e-02 0.0000000000000000e+00  9.9676490681464858e-01 -2.0706166911812579e-04 0.0000000000000000e+00  7.9837442781296930e-01 -2.6294125856893804e-02 0.0000000000000000e+00  4.2319276408942735e-01 1.1253701213585604e-02 0.0000000000000000e+00  4.3459686789703839e-01 -3.1280349346056745e-02 0.0000000000000000e+00  1.3318429339401474e-04 3.0178535626100945e-05 0.0000000000000000e+00  9.4766122197701452e-01 1.0918756791921527e-02 0.0000000000000000e+00  1.5691993834816341e-04 3.8116782364029309e-04 0.0000000000000000e+00  1.9492560867714225e-04 -2.1652033278920762e-04 0.0000000000000000e+00  9.4770850309310206e-01 -1.0786085789948451e-02 0.0000000000000000e+00  1.3773726561673285e-04 9.4480401471147955e-05 0.0000000000000000e+00  9.3654741215554127e-01 6.5850673078206735e-04 0.0000000000000000e+00  9.3647649376200182e-01 -7.0890929754123511e-04 0.0000000000000000e+00  1.1210725919872162e+00 -3.4298804520482667e-01 0.0000000000000000e+00  4.3711757822692071e-01 3.5497767907387752e-05 0.0000000000000000e+00  1.3829088039509602e-04 -9.4786073872202731e-05 0.0000000000000000e+00  7.3868153228454647e-01 1.9321109941164320e-02 0.0000000000000000e+00  8.4138492369383122e-01 -1.8824055842794776e-01 0.0000000000000000e+00  9.3917858357443218e-01 1.2180554600532995e-02 0.0000000000000000e+00  7.8717594501429589e-01 -6.8605201318466980e-02 0.0000000000000000e+00  7.0792551857739472e-01 -1.4592178317973564e-01 0.0000000000000000e+00  3.5643013796058853e-01 -7.7522168481738334e-03 0.0000000000000000e+00  9.2799665774740492e-01 -2.3950366831008155e-02 0.0000000000000000e+00  8.1034526982892685e-01 -1.8016512207825845e-02 0.0000000000000000e+00  9.0277430917567314e-01 1.2628283551466149e-01 0.0000000000000000e+00  3.6335633745793061e-01 -1.2937412314226907e-02 0.0000000000000000e+00  8.4701588661543348e-01 -4.5539321701224572e-02 0.0000000000000000e+00  4.9519239733152914e-01 2.1039117325183238e-02 0.0000000000000000e+00  8.7049991851390263e-01 -4.1916645381469775e-02 0.0000000000000000e+00  1.0802931527031099e+00 3.9758799101184739e-01 0.0000000000000000e+00  7.9313629834414501e-01 1.0606682920174859e-01 0.0000000000000000e+00  1.0074081915771711e+00 1.1167508905016083e-01 0.0000000000000000e+00  6.0885162272923321e-01 -2.2337539952182506e-02 0.0000000000000000e+00  2.9258544335361225e-01 -5.8427560037598268e-03 0.0000000000000000e+00  3.1696240622179173e-01 -1.9255841092038990e-02 0.0000000000000000e+00  4.5534299911258752e-01 2.4390078450116523e-02 0.0000000000000000e+00  7.4791771237059068e-01 7.5018696661885584e-02 0.0000000000000000e+00  8.1285552523459770e-01 7.0090359198716354e-02 0.0000000000000000e+00  7.6617247837953251e-01 3.9845870313229219e-02 0.0000000000000000e+00  3.5364716951564024e-01 1.1261266043763395e-02 0.0000000000000000e+00  9.0565269881048460e-01 2.7510803034629237e-02 0.0000000000000000e+00  9.8039420805939193e-01 -5.6329699425433045e-03 0.0000000000000000e+00  4.2888248669389201e-01 1.9279328782793169e-02 0.0000000000000000e+00  9.2671766789633592e-01 -2.2809869196341422e-02 0.0000000000000000e+00  6.8025925913768770e-01 1.3755241796825290e-01 0.0000000000000000e+00  4.1037777938769332e-01 4.6570411527202878e-02 0.0000000000000000e+00  3.6766423552176608e-01 -3.9273544211547877e-02 0.0000000000000000e+00  9.6703837745909493e-01 -9.0104459910156261e-03 0.0000000000000000e+00  7.2963857392693332e-01 1.2999883794360765e-02 0.0000000000000000e+00  3.6195369769420466e-01 5.5756822409876988e-03 0.0000000000000000e+00  5.1245090908010038e-01 2.2085703193847742e-02 0.0000000000000000e+00  6.0238987808114630e-01 -1.8552837465786957e-02 0.0000000000000000e+00  6.3250845598189831e-01 -2.3710666518129306e-01 0.0000000000000000e+00  9.8842535582582880e-01 5.9483340370877222e-03 0.0000000000000000e+00  4.4968224321476458e-01 -2.1205943392251417e-02 0.0000000000000000e+00  7.9188349404950176e-01 -8.9139706866362287e-02 0.0000000000000000e+00  8.9469418414701618e-01 1.9078192058780880e-02 0.0000000000000000e+00  1.0253434477104795e-04 -7.1805272301493319e-06 0.0000000000000000e+00  2.0693387393107138e-01 4.6526367902776949e-02 0.0000000000000000e+00  9.7280710597849285e-01 8.9958100101847141e-03 0.0000000000000000e+00  8.5600076807902448e-01 1.6384921170632803e-02 0.0000000000000000e+00  9.5474167799281073e-01 -1.1740924796626525e-02 0.0000000000000000e+00  8.7170929401779917e-01 -6.8554397208144727e-02 0.0000000000000000e+00  8.7454246197010477e-01 7.9182809665514692e-02 0.0000000000000000e+00  9.9264101396250959e-01 1.7918008850422215e-01 0.0000000000000000e+00  5.9654262368971844e-01 1.7640890472129390e-02 0.0000000000000000e+00  8.2981382803126058e-01 -1.9765041458588439e-02 0.0000000000000000e+00  6.9982944287985094e-01 -5.2543750486464938e-02 0.0000000000000000e+00  2.8682678986930510e-01 1.0755126311012601e-02 0.0000000000000000e+00  6.3554501853132073e-01 -4.2276463721983092e-02 0.0000000000000000e+00  3.3105689753222778e-01 -1.2668667434320853e-02 0.0000000000000000e+00  9.8392819193057246e-01 1.2624285479764608e-01 0.0000000000000000e+00  8.5550182252226259e-01 1.5944065789868334e-01 0.0000000000000000e+00  6.7229074274181899e-01 1.8502184624401983e-02 0.0000000000000000e+00  5.5278084164998631e-01 2.3337002976542801e-01 0.0000000000000000e+00  1.1534554482889607e+00 6.2614819888939477e-01 0.0000000000000000e+00  1.6520307468948392e-04 -1.6196609860219066e-04 0.0000000000000000e+00  3.4610558224854127e-01 1.2975213356252667e-02 0.0000000000000000e+00  2.3058137000743045e-01 3.3479767234255173e-03 0.0000000000000000e+00  1.7277290877879152e-04 3.9521066810145139e-04 0.0000000000000000e+00  8.9911792744376851e-01 -1.4136640145569174e-02 0.0000000000000000e+00  1.1062304635913003e+00 6.8714849310256843e-02 0.0000000000000000e+00  8.0196556692189291e-01 7.0071363841430645e-02 0.0000000000000000e+00  2.0268080570064453e-04 2.6129659375330645e-04 0.0000000000000000e+00  1.1665499700277069e+00 -6.0671426716157573e-01 0.0000000000000000e+00  8.3221898144509943e-01 -9.6412055315783271e-02 0.0000000000000000e+00  8.7029378529901436e-01 -1.4319633958854255e-01 0.0000000000000000e+00  8.3778635169100890e-01 1.0795007619211053e-01 0.0000000000000000e+00  9.3846496160974802e-01 -1.2953852578856964e-01 0.0000000000000000e+00  6.0741007907325262e-01 2.6867697950975000e-02 0.0000000000000000e+00  9.1510097542003532e-01 -1.2158155389816121e-02 0.0000000000000000e+00  6.6501336249635701e-01 -1.4226072426776268e-01 0.0000000000000000e+00  9.3127590406921190e-01 2.7966861857680041e-02 0.0000000000000000e+00  9.6072830056698344e-01 -1.7870443452036458e-01 0.0000000000000000e+00  2.3356503727473751e-01 1.8347223031938928e-05 0.0000000000000000e+00  8.5617434552479266e-01 9.7188643351759488e-02 0.0000000000000000e+00  8.2645103335522851e-01 4.9478189006996326e-03 0.0000000000000000e+00  9.0860727491775317e-01 4.2160286053941835e-02 0.0000000000000000e+00  8.0771135069118272e-01 -7.8087720440463207e-02 0.0000000000000000e+00  3.6754260948584894e-01 -7.3711168299117162e-03 0.0000000000000000e+00  1.7690625500011470e-04 -3.3953795570618026e-04 0.0000000000000000e+00  2.9269150770286628e-01 -1.9685857466544252e-02 0.0000000000000000e+00  1.3353757491890061e-04 -7.7785386470122141e-05 0.0000000000000000e+00  2.5010307738291448e-01 3.3926624397130969e-03 0.0000000000000000e+00  1.0008903363869046e+00 -2.5239280576202943e-03 0.0000000000000000e+00  9.7784726791381982e-01 -7.6642533454012712e-03 0.0000000000000000e+00  6.7726566915138875e-01 2.2020922736888777e-02 0.0000000000000000e+00  1.0999555118994753e+00 -7.8671846825413408e-02 0.0000000000000000e+00  4.6662314180981002e-01 -1.1237122934038418e-02 0.0000000000000000e+00  6.7884090267175523e-01 2.0537748228051707e-02 0.0000000000000000e+00  3.3023425475516449e-01 7.0302633046560165e-04 0.0000000000000000e+00  8.0772766190634171e-01 1.9460456777650740e-02 0.0000000000000000e+00  7.1865881710609225e-01 -2.0272249929992357e-02 0.0000000000000000e+00  7.5763789882382737e-01 -3.4397335232418919e-02 0.0000000000000000e+00  8.8988316577293181e-01 -2.2152306520994355e-02 0.0000000000000000e+00  7.6358940372238904e-01 -4.8472897303344677e-02 0.0000000000000000e+00  2.2089025162456863e-01 2.2767064703575163e-02 0.0000000000000000e+00  8.1099440618648222e-01 -4.9118705454257824e-02 0.0000000000000000e+00  9.1192798870595426e-01 -1.4313463846342300e-02 0.0000000000000000e+00  9.4563019340355414e-01 1.6152765337902504e-02 0.0000000000000000e+00  6.8107070098771938e-01 1.2349994337464476e-01 0.0000000000000000e+00  2.0342957808899012e-01 -4.3930422776010079e-02 0.0000000000000000e+00  1.0410594822880192e-04 5.8476846901005234e-06 0.0000000000000000e+00  1.6191297222769476e-04 -3.6926115708009152e-04 0.0000000000000000e+00  2.3363666526178722e-01 -1.4900877302867612e-05 0.0000000000000000e+00  4.9092272021882660e-01 -1.7686915529599622e-02 0.0000000000000000e+00  8.6502150294913593e-01 -2.5283766856357681e-01 0.0000000000000000e+00  8.5882744918176335e-01 -3.6776709109679885e-04 0.0000000000000000e+00  2.4371841719794876e-01 4.1908644242954381e-03 0.0000000000000000e+00  9.8222644597015651e-01 -8.8941267994299938e-04 0.0000000000000000e+00  9.8223971611777916e-01 8.7857801453833882e-04 0.0000000000000000e+00  9.4183494432441572e-01 1.1383431678296406e-02 0.0000000000000000e+00  6.9130604341185831e-01 2.6792457054026338e-02 0.0000000000000000e+00  3.1134230786313566e-01 -6.3855820519864055e-03 0.0000000000000000e+00  2.7697605768347289e-01 -4.1195563956052785e-03 0.0000000000000000e+00  8.4696242200315841e-01 2.4139717411723663e-01 0.0000000000000000e+00  8.9944118895444392e-01 5.9460261106189592e-02 0.0000000000000000e+00  9.1631871835181111e-01 -1.8722667024481934e-01 0.0000000000000000e+00  2.7039243041172800e-01 -5.6201105930424591e-03 0.0000000000000000e+00  6.1415479886331215e-01 2.5170375471909805e-02 0.0000000000000000e+00  8.6926075627318111e-01 1.5755824426780241e-02 0.0000000000000000e+00  9.9436701243674042e-01 5.6386933618277710e-03 0.0000000000000000e+00  2.0760328706191899e-04 -2.6732954676698928e-04 0.0000000000000000e+00  1.7614419423969989e-04 3.3846220301785729e-04 0.0000000000000000e+00  1.4679865776213595e-04 -1.1474626772827048e-04 0.0000000000000000e+00  9.9439114548762042e-01 -5.5187536157190412e-03 0.0000000000000000e+00  8.6932999984261372e-01 -1.5601161253331665e-02 0.0000000000000000e+00  6.1427362800797425e-01 -2.4943026246553306e-02 0.0000000000000000e+00  8.5884893662454198e-01 3.4839158467585860e-04 0.0000000000000000e+00  1.6332698300686283e-04 1.2755500105613950e-04 0.0000000000000000e+00  1.2383701468739137e-04 -4.3727243544020647e-05 0.0000000000000000e+00  1.3264499278225380e-04 7.7252767957846537e-05 0.0000000000000000e+00  6.0897262305253963e-01 -9.6715561609909942e-05 0.0000000000000000e+00  1.2566882252152347e-04 4.4274108941812328e-05 0.0000000000000000e+00  6.0903856468276041e-01 8.0505663732078985e-05 0.0000000000000000e+00  1.6384479396009747e-04 1.6048462455817955e-04 0.0000000000000000e+00  2.6489700694603319e-01 7.4734044995953541e-03 0.0000000000000000e+00  8.9106047545487999e-01 -5.9284353678662846e-02 0.0000000000000000e+00  8.3344290804580146e-01 3.3431690201238186e-02 0.0000000000000000e+00  9.7847473444437305e-01 7.5604791424701903e-03 0.0000000000000000e+00  2.5404578930678584e-01 1.4569713205095125e-02 0.0000000000000000e+00  4.7297877929867993e-01 -1.6736001504984048e-02 0.0000000000000000e+00  8.4904931493508728e-01 1.7182293408123578e-02 0.0000000000000000e+00  8.0680474911526012e-01 -1.8152181908667731e-02 0.0000000000000000e+00  7.3007782132494037e-01 -1.9012985749850785e-02 0.0000000000000000e+00  7.4084253289739288e-01 7.1684154729473815e-02 0.0000000000000000e+00  3.5403358635339838e-01 2.9409163790472561e-02 0.0000000000000000e+00  5.9862285580918728e-01 4.4174493355703975e-02 0.0000000000000000e+00  8.2646719575672312e-01 -1.4798658389112987e-01 0.0000000000000000e+00  5.8590656126785012e-01 1.8041521490236696e-02 0.0000000000000000e+00  9.7294811844262286e-01 -3.7369996828865168e-03 0.0000000000000000e+00  9.5691825467833325e-01 1.1122052874848189e-02 0.0000000000000000e+00  2.3918007960244281e-01 6.4861637990740115e-03 0.0000000000000000e+00  1.0891514359049799e+00 -1.1898603646593020e-01 0.0000000000000000e+00  8.3563891839486737e-01 -9.4288240796281231e-02 0.0000000000000000e+00  7.1558919244940700e-01 -6.2990015746384798e-02 0.0000000000000000e+00  4.2941297295634434e-01 9.7119594110180955e-03 0.0000000000000000e+00  6.5380974704930994e-01 -9.4704593064244960e-02 0.0000000000000000e+00  5.1363647367149101e-01 -6.6398476854373847e-02 0.0000000000000000e+00  9.4610628481003778e-01 -1.6027717955713779e-02 0.0000000000000000e+00  9.3090126612336144e-01 -2.8162621221326133e-02 0.0000000000000000e+00  8.6717494277448093e-01 -3.2057572187207492e-02 0.0000000000000000e+00  8.4679930643126300e-01 9.2526700456451796e-02 0.0000000000000000e+00  6.1456585718463996e-01 -4.5880655375546336e-02 0.0000000000000000e+00  8.9997788199899953e-01 1.7038524290476856e-01 0.0000000000000000e+00  9.6705653461314400e-01 -3.6806649704619382e-01 0.0000000000000000e+00  8.9165979730106859e-01 -4.8567524273063004e-02 0.0000000000000000e+00  4.8929686508355524e-01 2.5437341427421462e-02 0.0000000000000000e+00  6.3877609118648859e-01 4.8483159995792356e-02 0.0000000000000000e+00  9.8346495352386898e-01 3.4110553635471157e-03 0.0000000000000000e+00  2.0535111321065544e-01 1.4131201611398025e-02 0.0000000000000000e+00  1.1343979434743265e+00 2.1100232477280859e-01 0.0000000000000000e+00  4.5331600498317848e-01 -2.3183777484766466e-02 0.0000000000000000e+00  2.3049296980729397e-01 -5.6744788372388643e-03 0.0000000000000000e+00  8.3090279547635737e-01 5.3717791821769723e-02 0.0000000000000000e+00  6.4281314213843366e-01 -2.3693150099553088e-02 0.0000000000000000e+00  2.7286927652378823e-01 5.5555762966917395e-02 0.0000000000000000e+00  1.0097808793438343e+00 4.5323565673173116e-01 0.0000000000000000e+00  7.3350202831915601e-01 6.0518968688040908e-02 0.0000000000000000e+00  7.4171286641561041e-01 4.9318592873283267e-02 0.0000000000000000e+00  2.2302539686785072e-01 -5.1229025340228298e-03 0.0000000000000000e+00  8.7762113435278966e-01 1.4804678630780201e-03 0.0000000000000000e+00  9.1437110992078541e-01 1.7493275804479090e-02 0.0000000000000000e+00  8.3307450897462898e-01 -5.9983918717017172e-02 0.0000000000000000e+00  8.3208318564226313e-01 6.4551749965483254e-02 0.0000000000000000e+00  7.3131205311446801e-01 4.3706585831308223e-02 0.0000000000000000e+00  9.4011508826743384e-01 -9.3030045939969403e-03 0.0000000000000000e+00  9.2259842088261046e-01 7.1901819828280047e-02 0.0000000000000000e+00  5.7293811829402141e-01 -2.0653741699401457e-02 0.0000000000000000e+00  7.8083526977079587e-01 -8.2599888100349461e-02 0.0000000000000000e+00  8.5037064201115042e-01 -1.1546359134961016e-01 0.0000000000000000e+00  8.6235219832145582e-01 6.6749373835753426e-02 0.0000000000000000e+00  9.0521092082194587e-01 -1.8224149596771175e-01 0.0000000000000000e+00  5.6842648834158849e-01 1.9211693864126390e-02 0.0000000000000000e+00  4.6352140237764217e-01 1.6666102129942240e-02 0.0000000000000000e+00  8.7073658111095942e-01 1.3632917305161679e-01 0.0000000000000000e+00  5.5157506596650674e-01 -2.7247161147110684e-02 0.0000000000000000e+00  5.8774244597582392e-01 2.0952958403106309e-02 0.0000000000000000e+00  8.8175708199646352e-01 3.8483456752211258e-02 0.0000000000000000e+00  2.0293076258589388e-01 -5.7840516450154917e-03 0.0000000000000000e+00  5.9319068964699284e-01 -1.4997903616833107e-02 0.0000000000000000e+00  8.6715312847874981e-01 -7.8963217329302671e-02 0.0000000000000000e+00  8.6582277615347314e-01 2.4883295560821136e-02 0.0000000000000000e+00  9.4481102589889610e-01 1.9254278837575283e-02 0.0000000000000000e+00  4.5152364138026324e-01 -1.2326574865550811e-02 0.0000000000000000e+00  8.4532903401994419e-01 -1.2644270594561004e-02 0.0000000000000000e+00  7.0588728209191487e-01 2.0918936823110323e-01 0.0000000000000000e+00  8.3623915988325070e-01 2.2002723223362972e-01 0.0000000000000000e+00  6.3312339593913658e-01 -1.9223563182115662e-02 0.0000000000000000e+00  7.2777281698242924e-01 -1.9986648317124253e-02 0.0000000000000000e+00  6.8775788523628101e-01 -2.2092724122216943e-02 0.0000000000000000e+00  4.6230906