<?xml version="1.0"?>
<VTKFile type="UnstructuredGrid"  version="0.1"  >
<UnstructuredGrid>
<Piece  NumberOfPoints="1630" NumberOfCells="3112">
<Points>
<DataArray  type="Float64"  NumberOfComponents="3"  format="ascii">0 4 0  0 0 0  4 0 0  4 4 0  0.6414213562373096 2.14142135623731 0  0.7 2 0  0.6414213562373094 1.858578643762691 0  0.4999999999999999 1.8 0  0.3585786437626904 1.858578643762691 0  0.3 2 0  0.3585786437626905 2.14142135623731 0  0.5 2.2 0  0 2 0  0 3 0  0 1 0  2 4 0  4 2 0  2 0 0  2.35 2.35 0  2.93875 1.06125 0  1.730459154046887 1.288113493264872 0  4 3 0  1.402275403750171 3.011088722007612 0  3 4 0  1 0 0  1 4 0  3 0 0  4 1 0  2.5 3.243939393939394 0  3.243939393939394 2.5 0  0.8891231146686027 1.000548053332123 0  1.538396929127129 2.111843048400676 0  3.274864751251965 3.274864751251965 0  1.5 0.5618255776495424 0  2.898219696969697 1.821590909090909 0  2.250097528577688 0.7245912909754488 0  4 0.5 0  3.5 0 0  0.6987997546338796 3.30120024536612 0  3.494857264561815 1.472144236999614 0  0.5 0 0  2.379289810545312 1.41267842841108 0  1.172152117838605 1.547024035219042 0  3.25 0.5468212603062425 0  0.7961929573292492 2.715073054663669 0  1.831175378192913 2.616087203228165 0  1.895923256631162 3.387810728409143 0  0 0.5 0  1.972621710799394 1.778832098715638 0  1.5 4 0  0.75 0.4787134635220818 0  1.193317235248461 3.502363103554577 0  3.46245063379422 2.008787840834658 0  2.901708172345216 2.901708172345216 0  2.718664983897782 0.4591820355455583 0  4 3.5 0  3.5 4 0  4 1.5 0  0.5 4 0  1.5 0 0  4 2.5 0  2.5 4 0  0 2.5 0  0 1.5 0  0.4444076268498212 1.25 0  0 3.5 0  2.5 0 0  3.503278004261107 0.9748576284519844 0  1.261951682304298 2.529922098363911 0  2.431742013944691 1.879843934510911 0  2.118108019851059 2.980591400080257 0  0.3823975899161232 0.75 0  2.75 3.621969696969697 0  2.790973548166894 2.460734624178322 0  3.538447632451404 2.876295485438267 0  1.316071954056614 1.125954851731804 0  2.25 3.64255658768052 0  2.492681871845633 2.770030115545854 0  1.129918682160699 1.975560718217893 0  1.952591353056031 2.202319822556797 0  0.3596132768695277 2.75 0  1.563215406116365 1.694598722970671 0  0.7754208380220989 1.479020590558829 0  3.68564168164192 3.25 0  3.25 3.680101480632268 0  3.635853397698684 3.635247749499161 0  1.920699775730421 0.432828065132199 0  1.834142427070557 0.8623754337095968 0  2.143886385217995 1.100704900884951 0  2.537739073944026 1.008872055777605 0  2.349305707707794 0.3534171873255952 0  2.782910794439386 1.434193620597931 0  3.104500057814295 2.14376424202131 0  0.8438736584523897 3.652982061810703 0  1.007302929383131 3.051307133599802 0  0.3065560336568765 3.25 0  0.4551119075949588 3.611630728772171 0  0.3626894884549623 0.3626894884549623 0  3.621969696969697 2.373955881884639 0  1.109249784629239 0.6623987595311139 0  1.25 0.2809127888247712 0  3.630446598045403 0.6106562213083707 0  2.899270369442534 3.277302554154646 0  0.9699028314386563 2.306575839175969 0  3.73287450331796 1.75 0  1.571894539766132 3.612373565839661 0  1.762533569588862 3.050808106798585 0  3.143538341898782 1.365854898173824 0  3.75 0 0  4 0.25 0  3.24302459493862 1.726236942685906 0  3.739483774508186 1.227571988934564 0  2.632856794240554 2.156993966426024 0  2.175164472110919 2.64363982028638 0  2.04089356353854 1.423219413804664 0  0.5979637000062453 2.983289714905934 0  2.94917035721814 0.7161810031103968 0  3.217487586302246 2.824098952680676 0  1.451029823010967 3.321902102400569 0  3.483157274963196 0.3228588149688616 0  2.190436241627436 3.284278001899603 0  1.876632108088082 3.70603191479251 0  1.013250229274632 1.282791261279627 0  1.447487756837019 1.409336002640087 0  3.223435354030419 0.8514932231793093 0  0.9348821161036954 1.73998989276749 0  0.3043823394791414 2.445803695716451 0  1.75 0 0  1.64699238875595 0.2906989171316907 0  3.185115278792098 0.2459266590843886 0  0.25 4 0  3.739425499050637 2.651598051390531 0  0.6035529124143404 2.483151322161818 0  1.360272891347578 0.8283175943337975 0  1.25 4 0  0.3154962796048327 1.540839533991945 0  1.702556220567684 2.353647321276259 0  1.525190685674622 2.714197882084063 0  1.592888950235815 1.029115537230018 0  1.182681419642508 2.814084641633932 0  2.550385747082849 0.7084144620552342 0  2.22211593889242 2.085581966900729 0  1.252870641368245 2.239181012936042 0  2.570208194541047 1.627769933762895 0  0.5845874300100842 0.9787696457768286 0  0 3.75 0  1.799318170313365 1.55409264491296 0  1.783713957496643 1.982114600219476 0  2.238331043521802 1.665032290682603 0  0.7534756737341178 0.7572495099273263 0  0.9625156541898719 0.2850603002098919 0  0.75 0 0  0.6080111964388567 0.2482288467398792 0  2.75 0 0  2.909813075069755 0.2605198315454781 0  3.732920089851 2.108062630896614 0  3.375365040841646 2.264256054306927 0  3.758112501697613 0.8595359613889522 0  0.720861261720803 1.213309130769304 0  3.088305401707915 3.466798931664568 0  0.9444676672764549 3.40569239682695 0  1.092723226424396 3.74965276853833 0  3.271169882229338 1.122294073194924 0  3.109722076499734 3.066850847097446 0  2.642835947146677 3.004722572263847 0  3.00572079136602 2.643686369832282 0  2.379681519528695 3.009845480685084 0  3.738118187020845 0.261881812979155 0  1.221837356849412 3.198622886495264 0  3.485728810692993 2.595258008101284 0  3.020775927714198 1.593667410275559 0  1.308803276122754 1.776840822656998 0  4 3.75 0  3.75 4 0  0.25 0 0  0 0.25 0  3.48982327850984 3.420534126896392 0  0.2834561551325083 1.016115968730929 0  0 1.25 0  2.580677957139492 0.2432364631684192 0  0 1.75 0  0 2.25 0  3.746815858172883 1.497184303404915 0  2.746761732548407 0.8671751520181329 0  1.354816007818416 3.759574000156623 0  2.993543198698849 3.706571484092185 0  0.2614187603426611 2.992395210366297 0  1.136681109685764 0.9472135414130078 0  1.005354660123817 2.562834331134171 0  2.504065710054304 3.731008263951622 0  4 0.75 0  4 1.25 0  4 1.75 0  1.25 0 0  0.75 4 0  2.25 0 0  4 2.25 0  4 2.75 0  4 3.25 0  0 2.75 0  2.25 4 0  3.25 0 0  2.75 4 0  0 0.75 0  3.25 4 0  0 3.25 0  1.75 4 0  2.107249236184017 0.2433280711998429 0  2.104314697667026 2.402586135599735 0  2.718249810428169 1.188142710009401 0  3.488920516847516 1.718103014492624 0  0.625 3.788773640282663 0  2.543078316093924 3.48713121016197 0  3.495435614028787 1.218932696658181 0  3.781690971096455 2.891631697063261 0  3.35518278298382 3.041539587430496 0  1.60095451999809 0.7846349279929736 0  0.2105862125876058 3.625 0  1.73820511005589 0.5881710981513568 0  1.495897261613472 2.47588660732607 0  3.417375359852902 0.7149089615302235 0  2.866398257410238 2.069090474528176 0  2.66406634281174 1.843394201472479 0  1.865495982590747 0.2045249430560988 0  0.5531194174747558 1.566925812141331 0  1.907789804113351 2.8509641849111 0  1.985715474981654 3.17257938668394 0  3.014844422297752 0.4809781619156832 0  0.5705424335715706 0.6202425086358888 0  0.2313877337132048 0.5635273867149863 0  3.02401552155857 2.404702026898773 0  2.577096361224372 2.379046248419333 0  2.738242006496645 2.708366532011663 0  1.946705612033579 1.215438844590237 0  1.66639300645671 3.402671362726329 0  1.237902975375692 1.334367210323196 0  0.2222038134249106 1.230590691255191 0  2.387835444398311 2.571396685115556 0  2.154858453482727 0.5002902596889653 0  2.009317834398079 0.694457316037922 0  3.10925086829468 1.913597393367055 0  0.3428193419966393 3.800673106313844 0  0.5803321120439422 2.76289846784853 0  2.043279794992122 3.556439075936398 0  2.083352313095959 3.792149426536632 0  2.368992994187903 1.175647991846967 0  1.335309750183184 2.040249166545691 0  0.9131801204681562 1.956481559590736 0  0.1792727597836805 2.625 0  2.107450937649036 0.887362507263796 0  2.326239842511811 0.9352102300461473 0  1.625 3.822703729346725 0  1.998474174604548 1.992272448335345 0  2.221172770002901 1.8749581607634 0  2.288699896681316 2.820444772769402 0  1.762836934589258 1.761414039283978 0  1.498868129178998 1.900131513503969 0  2.432820792760586 2.090605913334514 0  0.7892986594762861 3.097548418973694 0  2.693412517538291 3.335090137310781 0  1.569938105382809 3.144019542786131 0  1.693209416512704 2.847708365531018 0  2.206462682196094 1.301447325256467 0  0.8172891353353915 2.458270550797505 0  2.750299132871075 0.6619675363640569 0  2.507682740248351 0.4981553793301517 0  1.536104654869069 1.225312368155815 0  2.362114705695796 3.393775302302988 0  1.277796163328224 0.5078763133311966 0  2.584761938046034 1.35474442593524 0  3.456704601694018 3.776198771060771 0  0.965048776793751 0.5012744480164533 0  1.900878954659743 2.399104105263249 0  2.940686741546618 1.281090793093015 0  2.821668039374097 1.633517023167662 0  3.293169184940453 3.479291203147233 0  0.9563627363382479 0.803596248089911 0  0.7241272859974588 1.674344542769182 0  0.9691927481923047 1.539822077036368 0  3.479367515625482 3.210835345994752 0  3.649707244183817 3.048313271933545 0  3.84282084082096 3.125 0  3.777084602062634 3.457658933885011 0  1.785219224048172 1.09299185652342 0  0.9700349031773053 2.840315028567015 0  2.869014755295062 2.272679273245684 0  3.831649739225246 2.375 0  3.375 0.1553477958163178 0  3.453792903052364 0.5194756124448228 0  1.450424492648698 0.2075808683142722 0  0.1532780168284383 3.375 0  0.4881730880388107 3.386721057331055 0  0.6652972992167718 3.520821528668387 0  0.5054590710952342 3.174770309797832 0  3.818622612037357 0.6713127983046139 0  3.780907291254774 0.4660984889498793 0  1.380668701602463 3.564034742627494 0  1.364755769343606 1.588035553400588 0  0.6014266216515259 1.373247442548863 0  0.15 2.125 0  0.1623742900544199 1.860150851934696 0  3.552326751950906 2.182002616707591 0  3.125 3.850464116814463 0  0.1603940246374014 0.3737743321603988 0  0.1492931216713356 0.875 0  0.426604509448859 0.1795501400743006 0  1.208970313894109 3.005670418293948 0  0.1811135759119333 0.1811135759119333 0  2.402598408530423 0.1673047526807904 0  3.289567276550352 2.092431533056323 0  0.7739187530309795 2.905971370314223 0  
[...]
<PointData  Scalars="f_282"> 
<DataArray  type="Float64"  Name="f_282"  format="ascii">-1.6820166423467202e+00  1.6818698998137627e+00  -4.9819934676274151e-02  5.0903113430327357e-02  -3.9224594856479738e+00  -1.2695786899907894e-02  4.0047998205787954e+00  7.6335259805141371e+00  8.8210847124890677e+00  -9.9208405922940468e-01  -8.3330135820609854e+00  -7.5196197906047706e+00  -2.8477549959356988e-02  -1.5605289235855579e+00  1.5549175888105953e+00  -5.0460773114756119e-01  1.9867539642789387e-04  5.0473963717007142e-01  -1.6035700046008725e-01  1.2538082149183558e-01  6.6253210528298656e-01  7.6332928014025969e-02  -1.1219901082434212e+00  3.4149224295868211e-02  1.7250929598997631e+00  -1.7229086245794281e+00  -3.4231475277625628e-02  -7.6313511959074251e-02  -2.9763435661626680e-01  -3.8354960202540353e-02  1.7795174264124594e+00  -1.8086031804601022e-01  -3.5193361251067583e-02  1.0657320652523907e+00  3.4257168475327046e-02  4.3549662700863712e-01  -7.6471693244729258e-02  -1.2654173056736848e-01  -1.7579850797565839e+00  8.7033120992785953e-03  1.9512405403715907e+00  2.4130688250109406e-01  1.1828695190261702e+00  2.3648090726303875e-02  -2.2098228204392663e+00  -5.2917850428080870e-01  -6.9663276462288259e-01  1.4098698112973531e+00  1.7718835135497868e-01  -1.0798041400067535e+00  1.6914119130712792e+00  -1.3729981661665904e+00  -1.9565158459751783e-04  -1.3359421971769059e-01  1.7521104022378331e-01  7.6459736192011601e-02  1.2656804937766619e-01  -4.7055017053874444e-02  -1.9527362685799770e+00  1.0802901264760922e+00  4.6953418035118884e-02  -1.4953553251116661e-01  -3.5433336940155349e+00  3.5059829044667290e+00  2.7232817864938279e+00  -1.4116369418255312e+00  1.5011652299618680e-01  3.1778547690625015e-03  -1.0916190839291464e+00  5.0803364729331620e-02  -4.8165559582852008e-01  1.7956020961228292e+00  -1.4854721846708099e-01  -1.0289252355027438e-01  -8.5081336977851766e-04  1.2000641638393090e+00  -4.0923156887835643e-01  -2.4860406174454663e-01  8.8952308577435135e-02  -1.6698646896775771e-01  -2.7329481741158661e+00  4.4280406580640430e-01  2.5526497236270091e+00  3.5316012308451689e-02  1.1504409573869086e-02  6.0150299931008684e-02  6.7187488304882970e-01  7.2185179192702265e-01  4.4609839694484499e-01  2.6555876407158274e-01  3.4419996948093606e-01  1.2379224768033996e-01  -1.8059267386793157e-02  -1.6660085976952368e+00  -1.6100171556676866e+00  -1.7514533050632661e+00  -1.7318921363505235e+00  1.7109308168793445e+00  3.8199091203441641e-03  1.4484847162939629e+00  1.3456095901872442e+00  -3.5679569188873120e-02  -1.3563024648761690e-01  -1.5049607732225676e+00  -8.7494082755967782e-03  -1.0009550316695901e+00  -7.6574234988795309e-01  6.2166493077837275e-02  -1.4447879333860758e-01  -6.9431055071988698e-02  2.2563401293893351e-02  -2.7046108146508555e-02  -4.8415174902701877e-02  -3.4458721309322526e-01  3.7965914037788023e-01  -2.0957973256147309e+00  1.1947599519874984e-01  -5.7143185048038787e-02  -1.1066627324590033e+00  -5.0429801268714075e-02  -4.7396203728035702e-01  -6.9713250515531522e-01  1.6976897268049944e+00  8.7209406486023977e-01  5.3598013175116040e-02  1.5226670484552558e+00  -4.1689478079079221e+00  7.6623331620623836e-01  9.2232119441993266e-01  -1.2700097507937397e-02  -1.8071115866196732e+00  2.3132420222790103e-02  -3.4383734985561505e+00  1.1889101461768008e+00  -1.4191462172112934e+00  4.1237931160254204e+00  -4.0781953734764159e-01  -8.6677334609556478e-01  9.0378736433981510e-01  -1.3830015104120130e+00  2.7260966537047426e-01  -4.9614571345873208e-02  -6.3728139118264437e-01  1.2191699042549520e-01  2.0500471156148232e+00  -1.5877256143094722e+00  4.2984256660864067e-01  1.9324578476405122e-02  1.7992679881275955e-01  1.7559857677670645e+00  1.6069658691172319e+00  1.9268600069761423e+00  1.7812888062264320e+00  4.2490421979856828e-02  6.5442449536503897e-02  3.8201507705408638e-03  -1.2741388941131308e-02  -4.2005812465134122e-02  2.2667696216352464e+00  -6.1310762652426617e-02  -1.5843051865813158e+00  -1.5084099002979452e+00  4.7559973167388442e-02  -8.2668786857542989e-02  -2.2501764661364659e-01  -8.7789531684826075e-02  -3.4073946694725410e-01  -7.8986241618066846e-02  -1.3400182880831115e+00  -1.0402972254701487e-02  5.8975409523861849e-02  5.3485784468416930e-01  6.9036264317549154e-02  1.4442466992489433e-01  1.8051927625447814e+00  1.5887992848730921e+00  1.7815612169748491e-02  2.0814339767351111e+00  2.1932769464461934e+00  1.9230234097926432e-01  4.6092950136550712e+00  -4.6206292009020551e+00  -1.8973280680902000e-02  1.9174395019432530e-01  -1.2406095445033334e+00  -4.7187705403635580e-02  -2.0385583537646181e+00  1.4464911467327943e+00  -1.7086168808350042e+00  -2.3722873445215192e-01  -8.0463834480512322e-02  -6.4878370189505416e-02  -2.4701639936368782e-02  1.4149233675935451e+00  -1.9266352390547286e+00  3.0127996415673064e-01  2.4570609156616359e-02  6.4795569900759478e-02  8.0329069463089736e-02  -2.1902071045922216e+00  -3.0084879197575032e-01  -8.8391398236295077e-02  -4.1987954577199074e-02  1.3579955894032911e+00  8.8693321172978165e-02  -1.3624501173133667e+00  -7.6654634093753504e-01  4.8979636167272911e-01  -2.5759552542829339e-01  1.7851425245198344e-01  5.7100430436180022e-03  -1.7975454565759272e+00  -2.6198552038167849e-01  8.8350690201508611e-03  3.7342956226293640e-02  -2.9641627163714854e-02  9.4664468785773048e-01  -1.6362232816829267e+00  8.3575668190419306e-01  -7.0538610299734539e-01  5.8741172732953376e-03  -1.4338146004660705e-02  4.5839495407796492e-02  6.9272254819827883e-01  3.9577467198667637e+00  -5.8625785354430249e-01  -6.0745643795318049e-01  7.4982863788388310e-02  1.7590205629311724e+00  1.6258230408214773e+00  -5.8100128054248558e-02  -1.2277079083526397e-01  -1.5829189501554033e-01  5.3247558532697370e-01  -9.0195568928253789e-01  1.2418804624831516e+00  2.5851570246154165e+00  -2.3284553835483462e-01  4.9369110799003046e-01  6.0267612006607318e-01  1.0733081064647145e-02  -1.7607522180428046e+00  -2.5541549601809641e+00  -5.7232157943734896e-01  -4.9985472753510507e-01  3.1156680904730516e-01  -9.6039496662339394e-02  3.0842573818321822e-01  -3.1123705360693528e+00  5.1336785003448171e-01  3.7546887186776018e-01  -9.3915097245033508e-01  6.6548429137326271e-03  7.1099702054570585e-02  -3.4781663852641953e-01  2.5920941720403279e-01  1.7226503010150501e-01  -3.8097948482276461e-02  -1.8224882061384193e+00  -2.0825340592703337e-01  -9.6625809043882271e-01  -7.6183413332395578e-01  3.4985779615382506e-01  -2.4212536460694083e+00  1.8483037771084304e-01  2.7814221033194558e-01  8.8528848420198325e-01  -3.6744075900020018e-01  1.2905724743877578e+00  1.9050201755776189e-01  6.5452501784759462e-02  1.5670124309193874e+00  -3.3842915723554895e-01  1.0899071582767551e-01  7.9126163666761964e-02  -1.1185692098756693e-02  1.6168426513115506e+00  3.0923306544763229e+00  1.7584821656024587e+00  4.2921157240220239e-04  2.1769476450304626e-02  5.4347237002793911e-02  5.7112748653105554e-02  7.0307282346151490e-01  -1.7482837648554919e+00  -5.4994066734879089e-02  2.1502232375687852e-02  -6.9295310453732245e-02  -1.8363642692880839e-02  1.1366769345214263e+00  -1.5593211275468764e+00  -1.7536734854602496e+00  -1.7201776536958049e+00  -1.8909791695538505e+00  -5.6662477681759922e-02  -6.1226563541105533e-02  -1.1940146491123165e+00  7.8849393987576477e-01  2.9016948086757202e+00  -2.9532606663469143e+00  3.2701594574373130e+00  -1.0395228345136678e-03  2.1496096441926061e-02  1.6063361857445786e+00  1.7027653672775867e+00  1.7986248003367684e+00  -1.3585801287516872e+00  1.6969041032350654e+00  2.6521558816822693e-01  -6.6633459252011251e-03  -2.0154638096855537e+00  5.9244618821451445e-01  9.4465830588036065e-02  7.0619742841132538e-02  3.1327970344527563e-02  2.8135012078155140e-02  -7.7754092407221739e-02  -1.6867875287866312e+00  6.0640765333478097e-01  -1.9068178908935038e-01  4.1520495115012155e+00  -3.0105264051256624e-02  -1.7412527350708007e-01  1.5138744763624603e+00  7.9316795849172672e-01  -1.2079265906092669e-01  -8.1485869284907156e-02  -1.3355403429508517e-01  -1.5350647199886642e+00  -1.1632456743966191e-03  1.7349691158029303e+00  -1.6432399394179481e-02  -2.7205745418418142e-01  6.7897889922536895e-03  -7.8884031925637399e-01  -4.4128936872746355e-02  -1.1582150885775135e+00  -2.5435100238417796e+00  -6.6518426302798395e-01  -1.6847482070421178e+00  8.3392183342015549e-02  -4.5489861613053240e-01  -8.3102297648797313e-03  -1.6818832304782207e+00  -8.2669829413304052e-01  -1.3972231572084945e-01  -6.4589062361240557e-01  8.9057752099265669e-02  2.6613526006995841e-01  -4.3762702535050444e+00  -3.1990770617594309e+00  1.4455764809225393e+00  -1.6343830535336219e+00  -2.3703747133066484e+00  1.8583861426040118e+00  -4.6416508570948412e-01  -2.3975572845390099e-02  1.0827896252109388e+00  1.4742884869072725e+00  3.0392486676491085e-02  -1.1094060411460023e+00  1.7117737932648045e+00  1.7436885707567193e+00  -1.0332095284882820e-01  -3.9651824753154305e-02  1.0157259566573057e-01  -9.0456788283342693e-02  -1.6973164742443205e+00  3.8247303969613450e-01  -3.5578979881160981e-02  2.3899011883806412e-01  2.7644088922936922e+00  3.2756958455231251e+00  -1.1677848757436047e-02  -3.8825104425212403e-01  -1.4447015992946171e+00  -1.2834067861430475e-02  -6.5999266066542779e-03  6.9214105474518839e-02  1.7196316048205342e+00  -4.5257062446297941e-01  -1.1232643941156537e+00  -4.3580042434770878e-03  -7.6416721217646477e-01  2.7437955040071549e-01  5.0311820265056018e-01  2.3508576511764483e-03  -1.4828817128527963e-01  -2.0806145467317481e+00  -1.8863173086654073e-01  1.2535996741232125e-01  -9.2582825889915410e-01  -4.3197191931891016e-01  1.6354129264845925e+00  3.3921784542804548e-02  -3.1842539288650812e-01  7.2084396149360658e-02  3.4027141658500750e+00  -6.2339466078918915e-01  1.2011109615840643e+00  -4.8507987444234048e-02  -2.5313316253593943e-01  1.3306026035704902e-01  9.6748475289640667e-01  -9.2234389393098276e-02  -2.8538766020623427e-02  -1.3417926917839457e-02  8.9132981378699516e-02  -9.5562569105138814e-02  1.7565622213000626e-01  1.6662397338947752e+00  -9.4334632971689036e-01  5.1645958680535173e+00  9.3167387333339025e-01  1.2856933666119905e-01  2.0459663789962046e+00  -6.2800696648239618e-01  -7.6299211794990762e-01  5.3538654079571264e-02  3.0780909231672160e-01  -8.5332633026028548e-01  1.7906152658728136e+00  -5.6907063978481809e-01  -1.0614855609151210e+00  -1.1310144947866327e+00  -1.2774370119942933e+00  5.9087801896481731e-02  -4.7697796977489268e+00  -4.1178412161336970e+00  2.6105624874881314e-02  -3.7554938817825823e-01  1.0502721050460302e+00  -5.8707965805617074e-02  -3.8034893229463967e-01  1.1026344134668403e-01  -1.7889942342023524e-01  -7.8338693926464656e-02  -3.8198175404594701e+00  -5.4610081453845458e+00  7.7955938097857846e-01  1.9956310366439203e+00  1.7300111063705279e+00  1.5287179245252720e+00  -6.3870046642368394e-02  1.5710320598318873e-03  -7.0702609950374237e-02  -1.5968449275510079e+00  1.0316465809730964e+00  -4.8892715098931694e-01  4.1717958963082204e-02  2.1554751338461305e-02  7.2546983216519506e-02  2.0157746926051474e+00  1.9616621593936585e+00  2.2670371421443902e+00  2.3047337882818097e+00  3.7290890040458102e-01  -1.5969382346839266e-02  -1.3591445838203999e+00  4.9296329509068738e-03  3.6966920406869400e-03  1.2254313193001824e-02  1.3333458461837538e-02  -1.6607426922668547e+00  -1.1812244410602593e+00  -2.6521471475695098e+00  7.1987630399572723e-03  5.6629863975825027e-02  3.1057707987910778e-02  1.3633355312309612e+00  1.2549078912518925e+00  -6.1115008392347725e-01  3.4931631022856691e-01  2.0209886593846749e+00  -3.8302254492639509e-01  -3.3291549553674922e+00  2.3338929463764493e-01  -2.3906361641050835e+00  4.9875126253913029e+00  1.3641012268071269e+00  -1.7908803994022211e+00  2.2799378418322708e-02  9.1651174919193640e-02  -1.4057133990476713e+00  4.3267383907650517e-02  -3.2410290889030432e-03  -1.8664035390579774e+00  9.7778209382609112e-03  -8.2871917099229794e-02  -1.6364130032907841e-02  4.8616296551337555e-02  -1.4975545677949373e+00  7.3891375165232354e-01  1.9509160763048342e-01  8.4119866622047357e-01  1.0608520104802641e+00  1.8813725083672517e+00  2.3029878694701331e-01  4.4220405346602631e-01  1.8004086044940035e+00  -1.9425494222504364e-01  -4.7005137443347644e-01  -2.6803229040922305e-01  2.2855354971593233e-03  -1.7313780711561064e-01  7.3036613200464262e-01  5.5309058159012170e-01  -1.5295278396560128e+00  3.7295436654201215e-02  1.6497861790830323e-01  8.0934916602987350e-02  1.2489989245991422e+00  1.3045144076880049e+00  7.6471554430552913e-03  1.2780563296912415e+00  7.2543012065209569e-03  4.2666914028852247e-03  1.7789737096742617e-01  1.1706743502006788e-01  1.4218461717384082e-01  3.1019951012732250e+00  -9.0043787847785509e-02  1.8627984647386620e+00  3.0058061622935656e-01  1.0220292571792668e+00  -1.8299538616119901e+00  -1.1453405605141603e-01  -1.2253256521623702e-01  3.9536309362307859e-01  7.9387309724954613e-01  2.5005229323037764e-01  -1.1094165752434513e+00  -7.9213443187478860e-02  -2.1410433283436725e-02  2.2845736550030646e+00  6.7517277575297030e-01  1.9607114440232813e+00  -2.6913572025501498e-01  -2.8527550537246221e-01  1.7225309307977770e+00  4.2242164296332985e-02  7.1445772217223105e-02  1.3114893991124715e-01  -1.0383551940876180e-01  -4.9089293628325079e-02  -2.8684642266143467e-01  8.2609039658173555e-01  -9.6772697173630173e-01  -1.6918831180413774e-01  2.9033686586635295e-02  5.2093497575484406e-02  -1.7947938747902403e+00  4.4013958421631150e-01  5.6044969417894686e-01  3.9565267872953913e-01  2.4611453827240606e-01  6.1160396004212836e-01  -4.1649899350774851e-02  4.3969703050726483e-01  -3.7902864775214012e-02  -6.6907239964403264e-01  1.0646638870689291e+00  -3.9390643221625450e-02  8.2598278119632718e-02  1.6350955165635279e+00  1.7301416968782684e+00  9.5103129380811691e-01  2.3803825153202207e+00  1.4939650705749792e+00  -1.2494236482596845e+00  -1.7457359573955640e+00  1.7553034797405018e+00  1.8548167693350606e+00  -3.8824387728035717e-04  -1.5794008956430263e+00  -5.3560016093781972e-03  -2.4036011118698877e-02  -1.7362108545816068e-01  -1.3886255195971413e+00  1.6105571462126999e-04  2.4082009049069226e+00  -6.4385734824595198e-02  -3.1853582436514122e-01  1.0908383949704703e-02  -2.3764827533525332e-01  6.2627394915865287e-01  7.7727441708220990e-02  -2.8182123850663676e-01  -2.0452681377076704e-01  -1.0082573845447448e-01  -2.3207309300155937e-02  -4.3435388443574099e-02  2.3600977113001548e-01  8.7883754055883878e-01  5.3452844692965296e-01  7.9170974286271933e-01  2.2035139215869450e-02  -1.5996754521250198e+00  -1.6768289367204474e+00  -1.6030307099723906e+00  -3.9590067028842696e-01  5.5549912049422379e-01  -1.8910772953354864e+00  -2.1513913057256246e+00  -6.0069463853422038e-02  -7.9084128888427224e-02  -6.1064396049987341e-02  2.1728767020643536e-01  1.1407921122717446e-01  3.9229171208403302e-01  1.0951775274280653e-01  -5.4071383586825505e-01  -2.3421527176217240e-02  7.7704295240326543e-02  -3.9617203950286650e-01  1.2077053400938091e+00  1.7505752049661678e+00  8.1487906466426910e-02  -1.1247997326244394e+00  -7.3818554114913004e-02  8.2296286809314179e-01  -1.8605197349853242e+00  -1.9455633913100694e+00  -2.3571343091703829e+00  -5.8003203934924419e-02  -8.4664815603728891e-02  -7.0908394271738440e-01  -1.3091319176767170e-03  5.3687258898993048e-02  -9.5531922767293664e-01  -1.2467656841398937e+00  -5.5209306943928274e-03  -4.3354755628578721e+00  7.0663811592327386e-01  -2.2875352287157361e-01  -2.3374428982616803e-02  -6.3613103770799474e-03  3.8717167252597759e-02  3.8403653595516125e-02  -1.5812109262001692e+00  -5.0946449269175818e-02  -1.0895478830598131e-01  -9.0394412341554785e-03  -9.8547873876169353e-02  -5.0379170114723815e-02  -1.7383130785250538e+00  -5.1563839073347961e-01  4.4306188902326831e+00  1.7280913584748485e+00  -1.5520606939413100e+00  -1.4921122412953167e+00  1.6258299516734753e-01  2.6594148685661434e-01  -1.4889244713240390e+00  1.7155322835229407e+00  1.6751127289168375e+00  -1.8943807919928685e-01  1.1215603149417892e-01  2.1873411619882455e-01  1.4019536508738351e-01  1.4131524377528756e-01  -5.2546441990594661e-02  1.4909561844079041e-02  -3.1422423192457916e-03  1.9413896862797129e+00  -1.8943801470117765e+00  1.8141782843121762e-02  1.6074549085571734e+00  1.0524465770620467e-02  -3.2368128286731523e-02  -5.4213547729919341e-03  -1.3913753977864990e-01  -6.7593666237518701e-01  2.2044627433121500e-01  -1.9235984798464194e-03  3.7144250089770314e-01  1.7926965494851892e+00  -9.2680970582606770e-02  8.1199543749279079e-01  1.4653539901330732e+00  7.9272382806033173e-02  1.6271182581694885e+00  -2.0339272155962279e-01  5.9550045864522011e-04  -1.6751878840664094e+00  1.8944049518483088e+00  -1.7154228792391679e+00  -5.3067550749148353e-02  -1.3922172013855416e-01  1.8441593409864585e+00  -9.1848390306910596e-02  -2.2019888436006618e-01  1.5778949536929563e+00  -1.8439416058130145e+00  7.1312926400414881e-02  -1.2888264074257066e-01  1.3971487266289456e-01  2.1931220148174724e-01  1.4237901717098473e+00  1.4894229552032574e+00  6.3911704758251670e-02  4.3077607439687631e+00  3.3212747176975514e+00  -3.3169767122088412e+00  -7.9284671846042279e-02  -1.0973555243833343e-01  -7.1375202448951333e-02  -5.6680549666042773e-02  -3.6093397003276760e-02  -1.2603531971110157e-02  3.6311094217756065e-02  7.9228899978558254e-02  -9.1785438143333953e-01  -2.7657055254103140e+00  6.2807802613458996e-01  -1.8051422301387661e+00  -1.4143716536043900e+00  -1.3604508352973925e+00  -1.9621120091609681e+00  4.7422734187548617e-02  1.2768743817125883e-01  9.1900430760251639e-01  1.8082312298962382e+00  -7.1628554768406266e-02  1.3280021290595190e+00  -1.3012409474968806e-02  -6.6195759108775024e-02  -1.1784584040874044e+00  1.1683154081854528e+00  1.1941122715468981e-02  -2.8559384670424666e+00  -5.3961104487279998e-01  -6.8227667878493492e-01  -5.9093037195870224e-01  -3.0007909542393935e-01  -4.6717764432332967e+00  -2.4917321496003196e-02  3.7804865323109221e-01  3.1950536428697740e-01  4.4657174873838623e-01  1.0673706925165234e-02  -1.3298815388084187e-01  3.6683112548415781e-01  2.9553789863218893e-01  -1.6255365453582920e+00  -1.7100205070904821e+00  5.8739809265469345e-01  -1.5791391131636679e-02  -3.1422320150758992e-01  -9.3663031095219777e-03  6.6142958702161561e-03  3.0017457798995766e-02  1.4908208055376819e+00  -3.1354513667346612e-01  5.6773718803136718e-02  1.9103432927982587e-02  4.5588268814301114e-01  2.6969507042434273e+00  -1.2631455763610411e+00  2.0327722591066907e-02  -4.5353109383926220e-02  -3.1354626795966594e+00  5.1624987485153373e-01  1.5328332375285318e+00  1.0486405876124877e-01  -3.9041358924333502e-01  -1.7537363604616468e-02  -1.3236376825045155e+00  -3.8920143448302227e+00  -1.2521480358872801e+00  -1.6467832338939903e-01  4.0271002998476468e-02  -2.2760699779404243e+00  -1.3942019048985397e-02  4.1904282100473186e-02  2.2555686955240663e-02  1.5688322971897233e+00  -6.9617354985560631e-01  2.5403966055307770e+00  -7.7648106682922358e-01  -5.6243150218662530e-01  1.6743970924805134e+00  1.7037673003120761e+00  1.5409184711648625e+00  -1.7623981189941196e+00  -4.9875993776813365e-01  -5.8848977031024596e-01  3.1144704192380024e+00  4.9741877506792452e-02  -1.0050841826123152e-01  8.2217882301987136e-02  -2.0596164442948156e-01  6.7780676303607665e-02  2.6362118676303053e-01  -6.2138301406656504e-01  -1.6353042330351647e-02  1.5330815734290832e-02  -1.0471721167740171e+00  1.6797529532770000e-01  4.9429426148275946e-02  4.3616039798819486e+00  7.3565531406132512e-01  -1.4612108140806532e+00  -1.6922180207107664e+00  9.9666592819391726e-03  -3.2788106077053270e-01  4.0247126616997464e-01  1.4533497874784735e-02  -5.3951806077626319e-01  -1.1331866356111611e-01  -4.1388407637730135e-01  -8.6674392343338447e-01  1.3663797586223145e+